LAMMPS (31 Aug 2021)
# PREREQUISITES:
#
#     You must use moltemplate.sh to create 3 files:
#        system.data  system.in.init  system.in.settings
#     (Follow the instructions in README_setup.sh,
#      or run the file as a script using ./README_setup.sh)

# ------------------------------- Initialization Section --------------------

include         "system.in.init"
    units real
    atom_style full
    bond_style harmonic
    angle_style harmonic
    dihedral_style opls
    improper_style harmonic
    pair_style lj/cut/coul/long 11.0 11.0
      # (Note to self: The pair_style used by OPLSAA/M (2015) is:
      #                lj/charmm/coul/long 9.0 11.0
      #                ...so this will have to be updated eventually.)
    pair_modify mix geometric
    special_bonds lj/coul 0.0 0.0 0.5
    kspace_style pppm 0.0001

# ------------------------------- Atom Definition Section -------------------

read_data       "system.data"
Reading data file ...
  orthogonal box = (0.0000000 0.0000000 0.0000000) to (48.000000 48.000000 48.000000)
  1 by 1 by 1 MPI processor grid
  reading atoms ...
  2160 atoms
  scanning bonds ...
  3 = max bonds/atom
  scanning angles ...
  3 = max angles/atom
  scanning dihedrals ...
  5 = max dihedrals/atom
  reading bonds ...
  1944 bonds
  reading angles ...
  2808 angles
  reading dihedrals ...
  3456 dihedrals
Finding 1-2 1-3 1-4 neighbors ...
  special bond factors lj:    0        0        0.5     
  special bond factors coul:  0        0        0.5     
     3 = max # of 1-2 neighbors
     4 = max # of 1-3 neighbors
     8 = max # of 1-4 neighbors
     8 = max # of special neighbors
  special bonds CPU = 0.001 seconds
  read_data CPU = 0.008 seconds

# OPLSAA atom charges are stored in a separate file.
# Load that file now:

include         "system.in.charges"
    #--------------------- IMPORTANT -----------------------
    # The first 56 atom types (excluding 48,49) are not intended for use in an
    # ordinary (all-atom) simulation.  Instead, these atoms were intended for
    # use with "United Atom" molecules which lack hydrogen atoms.
    # (They belong to the OPLSUA force field, not the OPLSAA force field.)
    #--------------------------------------------------------
    set type 1 charge -0.22  # "Fluoride -CH2-F (UA)"    DON'T USE(OPLSUA)
Setting atom values ...
  0 settings made for charge
    set type 2 charge 0.22  # "Fluoride -CH2-F (UA)"     DON'T USE(OPLSUA)
Setting atom values ...
  0 settings made for charge
    set type 3 charge 0.55  # "Acetic Acid -COOH (UA)"   DON'T USE(OPLSUA)
Setting atom values ...
  0 settings made for charge
    set type 4 charge -0.5  # "Acetic Acid >C=O (UA)"    DON'T USE(OPLSUA)
Setting atom values ...
  0 settings made for charge
    set type 5 charge -0.58  # "Acetic Acid -OH (UA)"    DON'T USE(OPLSUA)
Setting atom values ...
  0 settings made for charge
    set type 6 charge 0.08  # "Acetic Acid CH3- (UA)"    DON'T USE(OPLSUA)
Setting atom values ...
  0 settings made for charge
    set type 7 charge 0.45  # "Acetic Acid -OH (UA)"     DON'T USE(OPLSUA)
Setting atom values ...
  0 settings made for charge
    set type 8 charge 0.0  # "Methane CH4 (UA)"          DON'T USE(OPLSUA)
Setting atom values ...
  0 settings made for charge
    set type 9 charge 0.0  # "Ethane CH3- (UA)"          DON'T USE(OPLSUA)
Setting atom values ...
  0 settings made for charge
    set type 10 charge 0.0  # "N-Alkane CH3- (UA)"       DON'T USE(OPLSUA)
Setting atom values ...
  0 settings made for charge
    set type 11 charge 0.0  # "Isobutane CH3- (UA)"      DON'T USE(OPLSUA)
Setting atom values ...
  0 settings made for charge
    set type 12 charge 0.0  # "Neopentane CH3- (UA)"     DON'T USE(OPLSUA)
Setting atom values ...
  0 settings made for charge
    set type 13 charge 0.0  # "Alkanes -CH2- (UA)"       DON'T USE(OPLSUA)
Setting atom values ...
  0 settings made for charge
    set type 14 charge 0.0  # "1-Alkene CH2= (UA)"       DON'T USE(OPLSUA)
Setting atom values ...
  0 settings made for charge
    set type 15 charge 0.0  # "Isobutane CH (UA)"        DON'T USE(OPLSUA)
Setting atom values ...
  0 settings made for charge
    set type 16 charge 0.0  # "2-Alkene -CH= (UA)"       DON'T USE(OPLSUA)
Setting atom values ...
  0 settings made for charge
    set type 17 charge 0.0  # "Aromatic CH (UA)"         DON'T USE(OPLSUA)
Setting atom values ...
  0 settings made for charge
    set type 18 charge 0.0  # "Neopentane C (UA)"        DON'T USE(OPLSUA)
Setting atom values ...
  0 settings made for charge
    set type 19 charge 0.0  # "Isobutene >C= (UA)"       DON'T USE(OPLSUA)
Setting atom values ...
  0 settings made for charge
    set type 20 charge -0.7  # "Alcohol OH (UA)"         DON'T USE(OPLSUA)
Setting atom values ...
  0 settings made for charge
    set type 21 charge 0.435  # "Alcohol OH (UA)"        DON'T USE(OPLSUA)
Setting atom values ...
  0 settings made for charge
    set type 22 charge 0.265  # "Methanol CH3- (UA)"     DON'T USE(OPLSUA)
Setting atom values ...
  0 settings made for charge
    set type 23 charge 0.265  # "Ethanol -CH2OH (UA)"    DON'T USE(OPLSUA)
Setting atom values ...
  0 settings made for charge
    set type 24 charge -0.47  # "Hydrogen Sulfide H2S"   DON'T USE(OPLSUA)
Setting atom values ...
  0 settings made for charge
    set type 25 charge -0.45  # "Alkyl Sulfide RSH (UA)" DON'T USE(OPLSUA)
Setting atom values ...
  0 settings made for charge
    set type 26 charge -0.47  # "Thioether RSR (UA)"     DON'T USE(OPLSUA)
Setting atom values ...
  0 settings made for charge
    set type 27 charge -0.3  # "Disulfide RSSR (UA)"     DON'T USE(OPLSUA)
Setting atom values ...
  0 settings made for charge
    set type 28 charge 0.235  # "Hydrogen Sulfide H2S"   DON'T USE(OPLSUA)
Setting atom values ...
  0 settings made for charge
    set type 29 charge 0.27  # "Alkyl Sulfide RSH (UA)"  DON'T USE(OPLSUA)
Setting atom values ...
  0 settings made for charge
    set type 30 charge 0.18  # "Methyl Sulfide CH3 (UA)" DON'T USE(OPLSUA)
Setting atom values ...
  0 settings made for charge
    set type 31 charge 0.18  # "Alkyl Sulfide CH2 (UA)"  DON'T USE(OPLSUA)
Setting atom values ...
  0 settings made for charge
    set type 32 charge 0.235  # "Thioether CH3 (UA)"     DON'T USE(OPLSUA)
Setting atom values ...
  0 settings made for charge
    set type 33 charge 0.235  # "Thioether CH2 (UA)"     DON'T USE(OPLSUA)
Setting atom values ...
  0 settings made for charge
    set type 34 charge 0.3  # "Disulfide CH3 (UA)"       DON'T USE(OPLSUA)
Setting atom values ...
  0 settings made for charge
    set type 35 charge 0.3  # "Disulfide CH2 (UA)"       DON'T USE(OPLSUA)
Setting atom values ...
  0 settings made for charge
    set type 36 charge -0.43  # "Acetonitrile -CN (UA)"  DON'T USE(OPLSUA)
Setting atom values ...
  0 settings made for charge
    set type 37 charge 0.28  # "Acetonitrile -CN (UA)"   DON'T USE(OPLSUA)
Setting atom values ...
  0 settings made for charge
    set type 38 charge 0.15  # "Acetonitrile CH3 (UA)"   DON'T USE(OPLSUA)
Setting atom values ...
  0 settings made for charge
    set type 39 charge 0.265  # "Isopropanol >CHOH (UA)" DON'T USE(OPLSUA)
Setting atom values ...
  0 settings made for charge
    set type 40 charge 0.265  # "t-Butanol COH (UA)"     DON'T USE(OPLSUA)
Setting atom values ...
  0 settings made for charge
    set type 41 charge -0.5  # "Ether ROR (UA)"          DON'T USE(OPLSUA)
Setting atom values ...
  0 settings made for charge
    set type 42 charge 0.25  # "Ether CH3-OR (UA)"       DON'T USE(OPLSUA)
Setting atom values ...
  0 settings made for charge
    set type 43 charge 0.25  # "Ether -CH2-OR (UA)"      DON'T USE(OPLSUA)
Setting atom values ...
  0 settings made for charge
    set type 44 charge 0.5  # "Methylene Chloride (UA)"  DON'T USE(OPLSUA)
Setting atom values ...
  0 settings made for charge
    set type 45 charge -0.25  # "Methylene Chloride (UA)"DON'T USE(OPLSUA)
Setting atom values ...
  0 settings made for charge
    set type 46 charge 0.42  # "Chloroform CHCl3 (UA)"   DON'T USE(OPLSUA)
Setting atom values ...
  0 settings made for charge
    set type 47 charge -0.14  # "Chloroform CHCl3 (UA)"  DON'T USE(OPLSUA)
Setting atom values ...
  0 settings made for charge
    set type 48 charge 0.248  # "Carbon Tetrachloride"
Setting atom values ...
  0 settings made for charge
    set type 49 charge -0.062  # "Carbon Tetrachloride"
Setting atom values ...
  0 settings made for charge
    set type 50 charge 0.139  # "DMSO >S=O (UA)"         DON'T USE(OPLSUA)
Setting atom values ...
  0 settings made for charge
    set type 51 charge -0.459  # "DMSO >S=O (UA)"        DON'T USE(OPLSUA)
Setting atom values ...
  0 settings made for charge
    set type 52 charge 0.16  # "DMSO CH3- (UA)"          DON'T USE(OPLSUA)
Setting atom values ...
  0 settings made for charge
    set type 53 charge -0.5  # "DMF C=O (UA)"            DON'T USE(OPLSUA)
Setting atom values ...
  0 settings made for charge
    set type 54 charge -0.57  # "DMF CON< (UA)"          DON'T USE(OPLSUA)
Setting atom values ...
  0 settings made for charge
    set type 55 charge 0.5  # "DMF C=O (UA)"             DON'T USE(OPLSUA)
Setting atom values ...
  0 settings made for charge
    set type 56 charge 0.285  # "DMF CH3- (UA)"          DON'T USE(OPLSUA)
Setting atom values ...
  0 settings made for charge
    #--------------------------------------------------------
    # ORDINARY (OPLSAA) ATOM TYPES BEGIN HERE:
    # Do not use the "UA" atom types above this line in an all-atom simulation.
    #--------------------------------------------------------
    set type 57 charge 0.0  # "Dummy Atom"
Setting atom values ...
  0 settings made for charge
    set type 58 charge 0.0  # "Helium Atom"
Setting atom values ...
  0 settings made for charge
    set type 59 charge 0.0  # "Neon Atom"
Setting atom values ...
  0 settings made for charge
    set type 60 charge 0.0  # "Argon Atom"
Setting atom values ...
  0 settings made for charge
    set type 61 charge 0.0  # "Krypton Atom"
Setting atom values ...
  0 settings made for charge
    set type 62 charge 0.0  # "Xenon Atom"
Setting atom values ...
  0 settings made for charge
    set type 63 charge -0.834  # "TIP3P Water O"
Setting atom values ...
  0 settings made for charge
    set type 64 charge 0.417  # "TIP3P Water H"
Setting atom values ...
  0 settings made for charge
    set type 65 charge 0.0  # "TIP4P Water O"
Setting atom values ...
  0 settings made for charge
    set type 66 charge 0.52  # "TIP4P Water H"
Setting atom values ...
  0 settings made for charge
    set type 67 charge -1.04  # "TIP4P Water M"
Setting atom values ...
  0 settings made for charge
    set type 68 charge -0.822  # "TIP3F Water O"
Setting atom values ...
  0 settings made for charge
    set type 69 charge 0.411  # "TIP3F Water H"
Setting atom values ...
  0 settings made for charge
    set type 70 charge 0.0  # "TIP4F Water O"
Setting atom values ...
  0 settings made for charge
    set type 71 charge 0.511  # "TIP4F Water H"
Setting atom values ...
  0 settings made for charge
    set type 72 charge -1.022  # "TIP4F Water M"
Setting atom values ...
  0 settings made for charge
    set type 73 charge 0.0  # "TIP5P Water O"
Setting atom values ...
  0 settings made for charge
    set type 74 charge 0.241  # "TIP5P Water H"
Setting atom values ...
  0 settings made for charge
    set type 75 charge -0.241  # "TIP5P Water LP"
Setting atom values ...
  0 settings made for charge
    set type 76 charge -0.82  # "SPC Water O"
Setting atom values ...
  0 settings made for charge
    set type 77 charge 0.41  # "SPC Water H"
Setting atom values ...
  0 settings made for charge
    set type 78 charge -1.02  # "Ammonia NH3"
Setting atom values ...
  0 settings made for charge
    set type 79 charge 0.34  # "Ammonia NH3"
Setting atom values ...
  0 settings made for charge
    set type 80 charge -0.18  # "Alkane CH3-"
Setting atom values ...
  0 settings made for charge
    set type 81 charge -0.12  # "Alkane -CH2-"
Setting atom values ...
  0 settings made for charge
    set type 82 charge -0.06  # "Alkane >CH-"
Setting atom values ...
  0 settings made for charge
    set type 83 charge -0.24  # "Methane CH4"
Setting atom values ...
  0 settings made for charge
    set type 84 charge 0.0  # "Alkane >C<"
Setting atom values ...
  0 settings made for charge
    set type 85 charge 0.06  # "Alkane H-C"
Setting atom values ...
  0 settings made for charge
    set type 86 charge 0.0  # "Alkene R2-C="
Setting atom values ...
  0 settings made for charge
    set type 87 charge -0.115  # "Alkene RH-C="
Setting atom values ...
  0 settings made for charge
    set type 88 charge -0.23  # "Alkene H2-C="
Setting atom values ...
  0 settings made for charge
    set type 89 charge 0.115  # "Alkene H-C="
Setting atom values ...
  0 settings made for charge
    set type 90 charge -0.115  # "Aromatic C"
Setting atom values ...
  0 settings made for charge
    set type 91 charge 0.115  # "Aromatic H-C"
Setting atom values ...
  0 settings made for charge
    set type 92 charge 0.0  # "Naphthalene Fusion C"
Setting atom values ...
  0 settings made for charge
    set type 93 charge -0.065  # "Ethyl Benzene CH3-"
Setting atom values ...
  0 settings made for charge
    set type 94 charge -0.005  # "Ethyl Benzene -CH2-"
Setting atom values ...
  0 settings made for charge
    set type 95 charge -0.115  # "Diene =CH-CH="
Setting atom values ...
  0 settings made for charge
    set type 96 charge -0.683  # "Alcohol -OH"
Setting atom values ...
  0 settings made for charge
    set type 97 charge 0.418  # "Alcohol -OH"
Setting atom values ...
  0 settings made for charge
    set type 98 charge 0.04  # "Methanol CH3-"
Setting atom values ...
  0 settings made for charge
    set type 99 charge 0.145  # "Alcohol CH3OH & RCH2OH"
Setting atom values ...
  0 settings made for charge
    set type 100 charge 0.205  # "Alcohol R2CHOH"
Setting atom values ...
  0 settings made for charge
    set type 101 charge 0.265  # "Alcohol R3COH"
Setting atom values ...
  0 settings made for charge
    set type 102 charge 0.1263  # "Trifluoroethanol -CH2-"
Setting atom values ...
  0 settings made for charge
    set type 103 charge 0.5323  # "Trifluoroethanol CF3-"
Setting atom values ...
  0 settings made for charge
    set type 104 charge -0.6351  # "Trifluoroethanol -OH"
Setting atom values ...
  0 settings made for charge
    set type 105 charge 0.4286  # "Trifluoroethanol -OH"
Setting atom values ...
  0 settings made for charge
    set type 106 charge -0.2057  # "Trifluoroethanol F"
Setting atom values ...
  0 settings made for charge
    set type 107 charge 0.0825  # "Trifluoroethanol -CH2-"
Setting atom values ...
  0 settings made for charge
    set type 108 charge 0.15  # "Phenol C-OH"
Setting atom values ...
  0 settings made for charge
    set type 109 charge -0.585  # "Phenol -OH"
Setting atom values ...
  0 settings made for charge
    set type 110 charge 0.435  # "Phenol -OH"
Setting atom values ...
  0 settings made for charge
    set type 111 charge -0.7  # "Diol -OH"
Setting atom values ...
  0 settings made for charge
    set type 112 charge 0.435  # "Diol -OH"
Setting atom values ...
  0 settings made for charge
    set type 113 charge -0.73  # "Triol -OH"
Setting atom values ...
  0 settings made for charge
    set type 114 charge 0.465  # "Triol -OH"
Setting atom values ...
  0 settings made for charge
    set type 115 charge 0.145  # "Diol & Triol -CH2OH"
Setting atom values ...
  0 settings made for charge
    set type 116 charge 0.205  # "Diol & Triol -CHROH"
Setting atom values ...
  0 settings made for charge
    set type 117 charge 0.265  # "Diol & Triol -CR2OH"
Setting atom values ...
  0 settings made for charge
    set type 118 charge 0.06  # "Diol & Triol H-COH"
Setting atom values ...
  0 settings made for charge
    set type 119 charge -0.17  # "Diphenyl Ether"
Setting atom values ...
  0 settings made for charge
    set type 120 charge 0.0  # "Diene =CR-CR="
Setting atom values ...
  0 settings made for charge
    set type 121 charge -0.285  # "Anisole -OCH3"
Setting atom values ...
  0 settings made for charge
    set type 122 charge -0.4  # "Dialkyl Ether -O-"
Setting atom values ...
  0 settings made for charge
    set type 123 charge 0.11  # "Methyl Ether CH3OR"
Setting atom values ...
  0 settings made for charge
    set type 124 charge 0.14  # "Ethyl Ether -CH2OR"
Setting atom values ...
  0 settings made for charge
    set type 125 charge 0.17  # "Isopropyl Ether >CHOR"
Setting atom values ...
  0 settings made for charge
    set type 126 charge 0.2  # "t-Butyl Ether COR"
Setting atom values ...
  0 settings made for charge
    set type 127 charge 0.03  # "Alkyl Ether H-COR"
Setting atom values ...
  0 settings made for charge
    set type 128 charge -0.4  # "Acetal RO-CR2OX"
Setting atom values ...
  0 settings made for charge
    set type 129 charge -0.7  # "Hemiacetal -OH"
Setting atom values ...
  0 settings made for charge
    set type 130 charge 0.435  # "Hemiacetal -OH"
Setting atom values ...
  0 settings made for charge
    set type 131 charge 0.2  # "Acetal RO-CH2-OR"
Setting atom values ...
  0 settings made for charge
    set type 132 charge 0.1  # "Acetal RO-CH2-OR"
Setting atom values ...
  0 settings made for charge
    set type 133 charge 0.265  # "Hemiacetal RO-CH2-OH"
Setting atom values ...
  0 settings made for charge
    set type 134 charge 0.1  # "Hemiacetal RO-CH2-OH"
Setting atom values ...
  0 settings made for charge
    set type 135 charge 0.3  # "Acetal RO-CHR-OR"
Setting atom values ...
  0 settings made for charge
    set type 136 charge 0.1  # "Acetal RO-CHR-OR"
Setting atom values ...
  0 settings made for charge
    set type 137 charge 0.365  # "Hemiacetal RO-CHR-OH"
Setting atom values ...
  0 settings made for charge
    set type 138 charge 0.1  # "Hemiacetal RO-CHR-OH"
Setting atom values ...
  0 settings made for charge
    set type 139 charge 0.4  # "Acetal RO-CR2-OR"
Setting atom values ...
  0 settings made for charge
    set type 140 charge 0.465  # "Hemiacetal RO-CR2-OH"
Setting atom values ...
  0 settings made for charge
    set type 141 charge 0.085  # "Anisole C-OCH3"
Setting atom values ...
  0 settings made for charge
    set type 142 charge -0.335  # "Thiol -SH"
Setting atom values ...
  0 settings made for charge
    set type 143 charge -0.47  # "Hydrogen Sulfide H2S"
Setting atom values ...
  0 settings made for charge
    set type 144 charge -0.435  # "Sulfide -S-"
Setting atom values ...
  0 settings made for charge
    set type 145 charge -0.2175  # "Disulfide -S-S-"
Setting atom values ...
  0 settings made for charge
    set type 146 charge 0.155  # "Thiol -SH"
Setting atom values ...
  0 settings made for charge
    set type 147 charge 0.235  # "Hydrogen Sulfide H2S"
Setting atom values ...
  0 settings made for charge
    set type 148 charge 0.06  # "Thiol -CH2-SH"
Setting atom values ...
  0 settings made for charge
    set type 149 charge 0.12  # "Thiol >CH-SH"
Setting atom values ...
  0 settings made for charge
    set type 150 charge 0.18  # "Thiol C-SH"
Setting atom values ...
  0 settings made for charge
    set type 151 charge 0.0375  # "Methyl Sulfide CH3-SR"
Setting atom values ...
  0 settings made for charge
    set type 152 charge 0.0975  # "Sulfide RCH2-SR"
Setting atom values ...
  0 settings made for charge
    set type 153 charge 0.1575  # "Sulfide R2CH-SR"
Setting atom values ...
  0 settings made for charge
    set type 154 charge 0.2175  # "Sulfide R3C-SR"
Setting atom values ...
  0 settings made for charge
    set type 155 charge 0.0375  # "Disulfide CH3-S-SR"
Setting atom values ...
  0 settings made for charge
    set type 156 charge 0.0975  # "Disulfide RCH2-S-SR"
Setting atom values ...
  0 settings made for charge
    set type 157 charge 0.1575  # "Disulfide R2CH-S-SR"
Setting atom values ...
  0 settings made for charge
    set type 158 charge 0.2175  # "Disulfide R3C-S-SR"
Setting atom values ...
  0 settings made for charge
    set type 159 charge 0.0  # "Methanethiol CH3-SH"
Setting atom values ...
  0 settings made for charge
    set type 160 charge 0.2  # "Benzyl Alcohol -CH2OH"
Setting atom values ...
  0 settings made for charge
    set type 161 charge 0.26  # "Benzyl Alcohol -CHROH"
Setting atom values ...
  0 settings made for charge
    set type 162 charge 0.32  # "Benzyl Alcohol -CR2OH"
Setting atom values ...
  0 settings made for charge
    set type 163 charge -0.055  # "Benzyl Alcohol/Nitrile"
Setting atom values ...
  0 settings made for charge
    set type 164 charge -0.32  # "Thioanisole -SCH3"
Setting atom values ...
  0 settings made for charge
    set type 165 charge 0.08  # "RCH2-NH2 & GLY CA"
Setting atom values ...
  0 settings made for charge
    set type 166 charge 0.14  # "RCHR-NH2 & ALA CA"
Setting atom values ...
  0 settings made for charge
    set type 167 charge 0.2  # "R3C-NH2 & AIB CA"
Setting atom values ...
  0 settings made for charge
    set type 168 charge -0.12  # "Chloroalkene Cl-CH="
Setting atom values ...
  0 settings made for charge
    set type 169 charge 0.005  # "Chloroalkene Cl-CH="
Setting atom values ...
  0 settings made for charge
    set type 170 charge 0.1025  # "Thioanisole C-SCH3"
Setting atom values ...
  0 settings made for charge
    set type 171 charge 0.14  # "Amide -NH-CHR2"
Setting atom values ...
  0 settings made for charge
    set type 172 charge 0.2  # "Amide -NH-CR3"
Setting atom values ...
  0 settings made for charge
    set type 173 charge 0.7  # "Benzophenone C=O"
Setting atom values ...
  0 settings made for charge
    set type 174 charge 0.565  # "Benzaldehyde C=O"
Setting atom values ...
  0 settings made for charge
    set type 175 charge 0.585  # "Acetophenone C=O"
Setting atom values ...
  0 settings made for charge
    set type 176 charge 0.615  # "Benzamide C=O"
Setting atom values ...
  0 settings made for charge
    set type 177 charge 0.5  # "Amide C=O"
Setting atom values ...
  0 settings made for charge
    set type 178 charge -0.5  # "Amide C=O"
Setting atom values ...
  0 settings made for charge
    set type 179 charge -0.76  # "Amide -CO-NH2"
Setting atom values ...
  0 settings made for charge
    set type 180 charge -0.5  # "Amide -CO-NHR"
Setting atom values ...
  0 settings made for charge
    set type 181 charge -0.14  # "Amide -CO-NR2"
Setting atom values ...
  0 settings made for charge
    set type 182 charge 0.38  # "Amide -CO-NH2"
Setting atom values ...
  0 settings made for charge
    set type 183 charge 0.3  # "Amide -CO-NHR"
Setting atom values ...
  0 settings made for charge
    set type 184 charge 0.02  # "Amide -NH-CH3"
Setting atom values ...
  0 settings made for charge
    set type 185 charge -0.11  # "Amide -NR-CH3"
Setting atom values ...
  0 settings made for charge
    set type 186 charge 0.08  # "Amide -NH-CH2R"
Setting atom values ...
  0 settings made for charge
    set type 187 charge -0.05  # "Amide -NR-CH2R & PRO CD"
Setting atom values ...
  0 settings made for charge
    set type 188 charge 0.01  # "Amide -NR-CHR2 & PRO CA"
Setting atom values ...
  0 settings made for charge
    set type 189 charge 0.142  # "Urea C=O"
Setting atom values ...
  0 settings made for charge
    set type 190 charge -0.39  # "Urea C=O"
Setting atom values ...
  0 settings made for charge
    set type 191 charge -0.542  # "Urea -NH2"
Setting atom values ...
  0 settings made for charge
    set type 192 charge 0.333  # "Urea -NH2"
Setting atom values ...
  0 settings made for charge
    set type 193 charge -0.49  # "Imide -NH-"
Setting atom values ...
  0 settings made for charge
    set type 194 charge 0.42  # "Imide C=O"
Setting atom values ...
  0 settings made for charge
    set type 195 charge -0.42  # "Imide C=O"
Setting atom values ...
  0 settings made for charge
    set type 196 charge 0.37  # "Imide -NH-"
Setting atom values ...
  0 settings made for charge
    set type 197 charge 0.06  # "Formimide H-C=O"
Setting atom values ...
  0 settings made for charge
    set type 198 charge -0.12  # "Imide CH3-CONHCO-"
Setting atom values ...
  0 settings made for charge
    set type 199 charge -0.06  # "Imide -CH2-CONHCO-"
Setting atom values ...
  0 settings made for charge
    set type 200 charge 0.0  # "Imide >CH-CONHCO-"
Setting atom values ...
  0 settings made for charge
    set type 201 charge 0.06  # "Imide C-CONHCO-"
Setting atom values ...
  0 settings made for charge
    set type 202 charge 0.035  # "Benzonitrile C-CN"
Setting atom values ...
  0 settings made for charge
    set type 203 charge 0.395  # "Benzonitrile -CN"
Setting atom values ...
  0 settings made for charge
    set type 204 charge -0.43  # "Benzonitrile -CN"
Setting atom values ...
  0 settings made for charge
    set type 205 charge 0.18  # "Chlorobenzene C-Cl"
Setting atom values ...
  0 settings made for charge
    set type 206 charge -0.18  # "Chlorobenzene C-Cl"
Setting atom values ...
  0 settings made for charge
    set type 207 charge -0.385  # "N-Phenylacetamide N"
Setting atom values ...
  0 settings made for charge
    set type 208 charge 0.085  # "N-Phenylacetamide N-CA"
Setting atom values ...
  0 settings made for charge
    set type 209 charge 0.52  # "Carboxylic Acid -COOH"
Setting atom values ...
  0 settings made for charge
    set type 210 charge -0.44  # "Carboxylic Acid C=O"
Setting atom values ...
  0 settings made for charge
    set type 211 charge -0.53  # "Carboxylic Acid -OH"
Setting atom values ...
  0 settings made for charge
    set type 212 charge 0.45  # "Carboxylic Acid -COOH"
Setting atom values ...
  0 settings made for charge
    set type 213 charge 0.7  # "Carboxylate COO-"
Setting atom values ...
  0 settings made for charge
    set type 214 charge -0.8  # "Carboxylate COO-"
Setting atom values ...
  0 settings made for charge
    set type 215 charge -0.28  # "Carboxylate CH3-COO-"
Setting atom values ...
  0 settings made for charge
    set type 216 charge -0.22  # "Carboxylate RCH2-COO-"
Setting atom values ...
  0 settings made for charge
    set type 217 charge -0.16  # "Carboxylate R2CH-COO-"
Setting atom values ...
  0 settings made for charge
    set type 218 charge -0.1  # "Carboxylate R3C-COO-"
Setting atom values ...
  0 settings made for charge
    set type 219 charge 0.45  # "Aldehyde/Acyl Halide C=O"
Setting atom values ...
  0 settings made for charge
    set type 220 charge -0.45  # "Aldehyde/Acyl Halide C=O"
Setting atom values ...
  0 settings made for charge
    set type 221 charge 0.0  # "Aldehyde/Formamide H-C=O"
Setting atom values ...
  0 settings made for charge
    set type 222 charge 0.47  # "Ketone C=O"
Setting atom values ...
  0 settings made for charge
    set type 223 charge -0.47  # "Ketone C=O"
Setting atom values ...
  0 settings made for charge
    set type 224 charge 0.06  # "Acyl H-C-COX"
Setting atom values ...
  0 settings made for charge
    set type 225 charge 0.04  # "C-Terminal ALA CA"
Setting atom values ...
  0 settings made for charge
    set type 226 charge -0.02  # "C-Terminal GLY CA"
Setting atom values ...
  0 settings made for charge
    set type 227 charge 0.1  # "C-Terminal AIB CA"
Setting atom values ...
  0 settings made for charge
    set type 228 charge -0.09  # "C-Terminal PRO CA"
Setting atom values ...
  0 settings made for charge
    set type 229 charge -0.4  # "Ammonium NH4+"
Setting atom values ...
  0 settings made for charge
    set type 230 charge -0.3  # "Ammonium RNH3+"
Setting atom values ...
  0 settings made for charge
    set type 231 charge 0.0  # "Ammonium R4N+"
Setting atom values ...
  0 settings made for charge
    set type 232 charge 0.35  # "Ammonium NH4+"
Setting atom values ...
  0 settings made for charge
    set type 233 charge 0.33  # "Ammonium RNH3+"
Setting atom values ...
  0 settings made for charge
    set type 234 charge 0.13  # "Ammonium CH3-NH3+"
Setting atom values ...
  0 settings made for charge
    set type 235 charge 0.19  # "CH3NH3+/N-Term GLY CA"
Setting atom values ...
  0 settings made for charge
    set type 236 charge 0.25  # "RCH2NH3+/N-Term ALA CA"
Setting atom values ...
  0 settings made for charge
    set type 237 charge 0.31  # "R3C-NH3+/N-Term AIB CA"
Setting atom values ...
  0 settings made for charge
    set type 238 charge 0.23  # "N-Terminal PRO CA"
Setting atom values ...
  0 settings made for charge
    set type 239 charge 0.17  # "N-Terminal PRO CD"
Setting atom values ...
  0 settings made for charge
    set type 240 charge 0.11  # "Ammonium CH3-NH2R+"
Setting atom values ...
  0 settings made for charge
    set type 241 charge 0.09  # "GLY Zwitterion CA"
Setting atom values ...
  0 settings made for charge
    set type 242 charge 0.15  # "ALA Zwitterion CA"
Setting atom values ...
  0 settings made for charge
    set type 243 charge -0.8  # "Guanidinium -NH2"
Setting atom values ...
  0 settings made for charge
    set type 244 charge 0.46  # "Guanidinium -NH2"
Setting atom values ...
  0 settings made for charge
    set type 245 charge 0.64  # "Guanidinium C+"
Setting atom values ...
  0 settings made for charge
    set type 246 charge -0.7  # "Guanidinium -NHR"
Setting atom values ...
  0 settings made for charge
    set type 247 charge 0.44  # "Guanidinium -NHR"
Setting atom values ...
  0 settings made for charge
    set type 248 charge 0.2  # "Me Guanidinium CH3-"
Setting atom values ...
  0 settings made for charge
    set type 249 charge -0.11  # "Et Guanidinium CH3-"
Setting atom values ...
  0 settings made for charge
    set type 250 charge 0.19  # "Et Guan -CH2- & ARG CD"
Setting atom values ...
  0 settings made for charge
    set type 251 charge -0.05  # "Pr Guan -CH2- & ARG CG"
Setting atom values ...
  0 settings made for charge
    set type 252 charge -0.2  # "Ammonium R2NH2+"
Setting atom values ...
  0 settings made for charge
    set type 253 charge 0.31  # "Ammonium R2NH2+"
Setting atom values ...
  0 settings made for charge
    set type 254 charge -0.46  # "Diaminopyridine N1"
Setting atom values ...
  0 settings made for charge
    set type 255 charge 0.36  # "Diaminopyridine C2"
Setting atom values ...
  0 settings made for charge
    set type 256 charge -0.85  # "Diaminopyridine -NH2"
Setting atom values ...
  0 settings made for charge
    set type 257 charge 0.37  # "Diaminopyridine -NH2"
Setting atom values ...
  0 settings made for charge
    set type 258 charge -0.15  # "Diaminopyridine C3"
Setting atom values ...
  0 settings made for charge
    set type 259 charge 0.1  # "Diaminopyridine H3"
Setting atom values ...
  0 settings made for charge
    set type 260 charge -0.04  # "Diaminopyridine C4"
Setting atom values ...
  0 settings made for charge
    set type 261 charge 0.1  # "Diaminopyridine H4"
Setting atom values ...
  0 settings made for charge
    set type 262 charge -0.6  # "Uracil & Thymine N1"
Setting atom values ...
  0 settings made for charge
    set type 263 charge 0.5  # "Uracil & Thymine C2"
Setting atom values ...
  0 settings made for charge
    set type 264 charge -0.51  # "Uracil & Thymine N3"
Setting atom values ...
  0 settings made for charge
    set type 265 charge 0.45  # "Uracil & Thymine C4"
Setting atom values ...
  0 settings made for charge
    set type 266 charge -0.07  # "Uracil & Thymine C5"
Setting atom values ...
  0 settings made for charge
    set type 267 charge 0.08  # "Uracil & Thymine C6"
Setting atom values ...
  0 settings made for charge
    set type 268 charge 0.41  # "Uracil & Thymine HN1"
Setting atom values ...
  0 settings made for charge
    set type 269 charge -0.4  # "Uracil & Thymine O2"
Setting atom values ...
  0 settings made for charge
    set type 270 charge 0.36  # "Uracil & Thymine HN3"
Setting atom values ...
  0 settings made for charge
    set type 271 charge -0.42  # "Uracil & Thymine O4"
Setting atom values ...
  0 settings made for charge
    set type 272 charge 0.1  # "Uracil & Thymine HC5"
Setting atom values ...
  0 settings made for charge
    set type 273 charge 0.1  # "Uracil & Thymine HC6"
Setting atom values ...
  0 settings made for charge
    set type 274 charge -0.14  # "Thymine CH3-"
Setting atom values ...
  0 settings made for charge
    set type 275 charge 0.08  # "Thymine CH3-"
Setting atom values ...
  0 settings made for charge
    set type 276 charge -0.56  # "Cytosine N1"
Setting atom values ...
  0 settings made for charge
    set type 277 charge 0.55  # "Cytosine C2"
Setting atom values ...
  0 settings made for charge
    set type 278 charge -0.54  # "Cytosine N3"
Setting atom values ...
  0 settings made for charge
    set type 279 charge 0.46  # "Cytosine C4"
Setting atom values ...
  0 settings made for charge
    set type 280 charge -0.06  # "Cytosine C5"
Setting atom values ...
  0 settings made for charge
    set type 281 charge 0.1  # "Cytosine C6"
Setting atom values ...
  0 settings made for charge
    set type 282 charge 0.38  # "Cytosine HN1"
Setting atom values ...
  0 settings made for charge
    set type 283 charge -0.48  # "Cytosine O2"
Setting atom values ...
  0 settings made for charge
    set type 284 charge -0.79  # "Cytosine NH2-"
Setting atom values ...
  0 settings made for charge
    set type 285 charge 0.385  # "Cytosine NH2- (N3)"
Setting atom values ...
  0 settings made for charge
    set type 286 charge 0.355  # "Cytosine NH2- (C5)"
Setting atom values ...
  0 settings made for charge
    set type 287 charge 0.1  # "Cytosine HC5"
Setting atom values ...
  0 settings made for charge
    set type 288 charge 0.1  # "Cytosine HC6"
Setting atom values ...
  0 settings made for charge
    set type 289 charge -0.53  # "Adenine N1"
Setting atom values ...
  0 settings made for charge
    set type 290 charge 0.22  # "Adenine C2"
Setting atom values ...
  0 settings made for charge
    set type 291 charge -0.55  # "Adenine N3"
Setting atom values ...
  0 settings made for charge
    set type 292 charge 0.38  # "Adenine C4"
Setting atom values ...
  0 settings made for charge
    set type 293 charge 0.15  # "Adenine C5"
Setting atom values ...
  0 settings made for charge
    set type 294 charge 0.44  # "Adenine C6"
Setting atom values ...
  0 settings made for charge
    set type 295 charge -0.49  # "Adenine & Guanine N7"
Setting atom values ...
  0 settings made for charge
    set type 296 charge 0.2  # "Adenine & Guanine C8"
Setting atom values ...
  0 settings made for charge
    set type 297 charge -0.5  # "Adenine & Guanine N9"
Setting atom values ...
  0 settings made for charge
    set type 298 charge 0.2  # "Adenine HC2"
Setting atom values ...
  0 settings made for charge
    set type 299 charge -0.81  # "Adenine NH2-"
Setting atom values ...
  0 settings made for charge
    set type 300 charge 0.385  # "Adenine NH2- (N1)"
Setting atom values ...
  0 settings made for charge
    set type 301 charge 0.355  # "Adenine NH2- (C5)"
Setting atom values ...
  0 settings made for charge
    set type 302 charge 0.2  # "Adenine & Guanine HC8"
Setting atom values ...
  0 settings made for charge
    set type 303 charge 0.35  # "Adenine & Guanine HN9"
Setting atom values ...
  0 settings made for charge
    set type 304 charge -0.56  # "Guanine N1"
Setting atom values ...
  0 settings made for charge
    set type 305 charge 0.46  # "Guanine C2"
Setting atom values ...
  0 settings made for charge
    set type 306 charge -0.51  # "Guanine N3"
Setting atom values ...
  0 settings made for charge
    set type 307 charge 0.34  # "Guanine C4"
Setting atom values ...
  0 settings made for charge
    set type 308 charge 0.12  # "Guanine C5"
Setting atom values ...
  0 settings made for charge
    set type 309 charge 0.52  # "Guanine C6"
Setting atom values ...
  0 settings made for charge
    set type 310 charge 0.38  # "Guanine HN1"
Setting atom values ...
  0 settings made for charge
    set type 311 charge -0.8  # "Guanine NH2-"
Setting atom values ...
  0 settings made for charge
    set type 312 charge 0.4  # "Guanine NH2-"
Setting atom values ...
  0 settings made for charge
    set type 313 charge -0.51  # "Guanine O6"
Setting atom values ...
  0 settings made for charge
    set type 314 charge -0.01  # "9-Me A & 9-Me-G CH3-"
Setting atom values ...
  0 settings made for charge
    set type 315 charge 0.12  # "9-Me-A & 9-Me-G CH3-"
Setting atom values ...
  0 settings made for charge
    set type 316 charge -0.01  # "1-Me-U & 1-Me-T CH3-"
Setting atom values ...
  0 settings made for charge
    set type 317 charge 0.14  # "1-Me-U & 1-Me-T CH3-"
Setting atom values ...
  0 settings made for charge
    set type 318 charge -0.01  # "1-Me-Cytosine CH3-"
Setting atom values ...
  0 settings made for charge
    set type 319 charge 0.13  # "1-Me-Cytosine CH3-"
Setting atom values ...
  0 settings made for charge
    set type 320 charge -0.64  # "CytosineH+ N1"
Setting atom values ...
  0 settings made for charge
    set type 321 charge 0.65  # "CytosineH+ C2"
Setting atom values ...
  0 settings made for charge
    set type 322 charge -0.74  # "CytosineH+ N3"
Setting atom values ...
  0 settings made for charge
    set type 323 charge 0.66  # "CytosineH+ C4"
Setting atom values ...
  0 settings made for charge
    set type 324 charge -0.06  # "CytosineH+ C5"
Setting atom values ...
  0 settings made for charge
    set type 325 charge 0.1  # "CytosineH+ C6"
Setting atom values ...
  0 settings made for charge
    set type 326 charge 0.49  # "CytosineH+ HN1"
Setting atom values ...
  0 settings made for charge
    set type 327 charge -0.3  # "CytosineH+ O2"
Setting atom values ...
  0 settings made for charge
    set type 328 charge 0.48  # "CytosineH+ HN3"
Setting atom values ...
  0 settings made for charge
    set type 329 charge -0.81  # "CytosineH+ NH2-"
Setting atom values ...
  0 settings made for charge
    set type 330 charge 0.46  # "CytosineH+ NH2- (N3)"
Setting atom values ...
  0 settings made for charge
    set type 331 charge 0.43  # "CytosineH+ NH2- (C5)"
Setting atom values ...
  0 settings made for charge
    set type 332 charge 0.14  # "CytosineH+ HC5"
Setting atom values ...
  0 settings made for charge
    set type 333 charge 0.14  # "CytosineH+ HC6"
Setting atom values ...
  0 settings made for charge
    set type 334 charge 0.01  # "1-Me-CytosineH+ CH3-"
Setting atom values ...
  0 settings made for charge
    set type 335 charge 0.16  # "1-Me-CytosineH+ CH3-"
Setting atom values ...
  0 settings made for charge
    set type 336 charge 0.78  # "DiMePhosphate P (UA)"
Setting atom values ...
  0 settings made for charge
    set type 337 charge -0.66  # "DiMePhosphate O=P-O (UA)"
Setting atom values ...
  0 settings made for charge
    set type 338 charge -0.43  # "DiMePhosphate CH3-O (UA)"
Setting atom values ...
  0 settings made for charge
    set type 339 charge 0.2  # "DiMePhosphate CH3-O (UA)"
Setting atom values ...
  0 settings made for charge
    set type 340 charge 0.18  # "Trifluorothymine CF3-"
Setting atom values ...
  0 settings made for charge
    set type 341 charge -0.06  # "Chloroalkene Cl2-C="
Setting atom values ...
  0 settings made for charge
    set type 342 charge 0.12  # "Chloroalkene Cl2-C="
Setting atom values ...
  0 settings made for charge
    set type 343 charge -1.0  # "Fluoride Ion F-"
Setting atom values ...
  0 settings made for charge
    set type 344 charge -1.0  # "Chloride Ion Cl-"
Setting atom values ...
  0 settings made for charge
    set type 345 charge -1.0  # "Bromide Ion Br-"
Setting atom values ...
  0 settings made for charge
    set type 346 charge -1.0  # "Iodide Ion I-"
Setting atom values ...
  0 settings made for charge
    set type 347 charge 1.0  # "Ammonium Ion NH4+ (UA)"
Setting atom values ...
  0 settings made for charge
    set type 348 charge 1.0  # "Lithium Ion Li+"
Setting atom values ...
  216 settings made for charge
    set type 349 charge 1.0  # "Sodium Ion Na+"
Setting atom values ...
  0 settings made for charge
    set type 350 charge 1.0  # "Potassium Ion K+"
Setting atom values ...
  0 settings made for charge
    set type 351 charge 1.0  # "Rubidium Ion Rb+"
Setting atom values ...
  0 settings made for charge
    set type 352 charge 1.0  # "Cesium Ion Cs+"
Setting atom values ...
  0 settings made for charge
    set type 353 charge 2.0  # "Magnesium Ion Mg+2"
Setting atom values ...
  0 settings made for charge
    set type 354 charge 2.0  # "Calcium Ion Ca+2"
Setting atom values ...
  0 settings made for charge
    set type 355 charge 2.0  # "Strontium Ion Sr+2"
Setting atom values ...
  0 settings made for charge
    set type 356 charge 2.0  # "Barium Ion Ba+2"
Setting atom values ...
  0 settings made for charge
    set type 357 charge -0.4  # "Methyl Thiolate CH3S-"
Setting atom values ...
  0 settings made for charge
    set type 358 charge 0.1  # "Methyl Thiolate CH3S-"
Setting atom values ...
  0 settings made for charge
    set type 359 charge -0.9  # "Methyl Thiolate CH3S-"
Setting atom values ...
  0 settings made for charge
    set type 360 charge -0.2  # "Methoxide CH3O-"
Setting atom values ...
  0 settings made for charge
    set type 361 charge 0.06  # "Methoxide CH3O-"
Setting atom values ...
  0 settings made for charge
    set type 362 charge -0.98  # "Methoxide CH3O-"
Setting atom values ...
  0 settings made for charge
    set type 363 charge -1.07  # "Nitrile Anion CNCH2-"
Setting atom values ...
  0 settings made for charge
    set type 364 charge 0.19  # "Nitrile Anion CNCH2-"
Setting atom values ...
  0 settings made for charge
    set type 365 charge 0.51  # "Nitrile Anion CNCH2-"
Setting atom values ...
  0 settings made for charge
    set type 366 charge -0.82  # "Nitrile Anion CNCH2-"
Setting atom values ...
  0 settings made for charge
    set type 367 charge -0.3  # "Me Amine Anion CH3NH-"
Setting atom values ...
  0 settings made for charge
    set type 368 charge 0.07  # "Me Amine Anion CH3NH-"
Setting atom values ...
  0 settings made for charge
    set type 369 charge -1.31  # "Me Amine Anion CH3NH-"
Setting atom values ...
  0 settings made for charge
    set type 370 charge 0.4  # "Methyl Amine Anion"
Setting atom values ...
  0 settings made for charge
    set type 371 charge -0.4  # "Ethyl Anion CH3-CH2-"
Setting atom values ...
  0 settings made for charge
    set type 372 charge 0.08  # "Ethyl Anion CH3-CH2-"
Setting atom values ...
  0 settings made for charge
    set type 373 charge 0.0  # "Ethyl Anion CH3-CH2-"
Setting atom values ...
  0 settings made for charge
    set type 374 charge 0.07  # "Ethyl Anion CH3-CH2-"
Setting atom values ...
  0 settings made for charge
    set type 375 charge -0.98  # "Ethyl Anion CH3-CH2-"
Setting atom values ...
  0 settings made for charge
    set type 376 charge -1.3  # "Hydroxide Ion OH-"
Setting atom values ...
  0 settings made for charge
    set type 377 charge 0.3  # "Hydroxide Ion OH-"
Setting atom values ...
  0 settings made for charge
    set type 378 charge 2.5  # "Uranyl Ion UO2+"
Setting atom values ...
  0 settings made for charge
    set type 379 charge -0.25  # "Uranyl Ion UO2+"
Setting atom values ...
  0 settings made for charge
    set type 380 charge -0.865  # "GTP O-(POn)2"
Setting atom values ...
  0 settings made for charge
    set type 381 charge 1.62  # "DiMe Phosphate P"
Setting atom values ...
  0 settings made for charge
    set type 382 charge -0.92  # "DiMe Phosphate O=P-O"
Setting atom values ...
  0 settings made for charge
    set type 383 charge -0.6  # "DiMe Phosphate CH3-O"
Setting atom values ...
  0 settings made for charge
    set type 384 charge 0.3  # "DiMe Phosphate CH3-O"
Setting atom values ...
  0 settings made for charge
    set type 385 charge -0.03  # "DiMe Phosphate CH3-O"
Setting atom values ...
  0 settings made for charge
    set type 386 charge 1.92  # "Me Phosphate P"
Setting atom values ...
  0 settings made for charge
    set type 387 charge -1.12  # "Me Phosphate O=PO2"
Setting atom values ...
  0 settings made for charge
    set type 388 charge -0.7  # "Me Phosphate CH3-O"
Setting atom values ...
  0 settings made for charge
    set type 389 charge 0.44  # "Me Phosphate CH3-O"
Setting atom values ...
  0 settings made for charge
    set type 390 charge -0.1  # "Me Phosphate CH3-O"
Setting atom values ...
  0 settings made for charge
    set type 391 charge 1.62  # "Me MePhosphonate P"
Setting atom values ...
  0 settings made for charge
    set type 392 charge -0.97  # "Me MePhosphonate O=P-O"
Setting atom values ...
  0 settings made for charge
    set type 393 charge -0.63  # "Me MePhosphonate CH3-O"
Setting atom values ...
  0 settings made for charge
    set type 394 charge 0.28  # "Me MePhosphonate CH3-O"
Setting atom values ...
  0 settings made for charge
    set type 395 charge -0.02  # "Me MePhosphonate CH3-O"
Setting atom values ...
  0 settings made for charge
    set type 396 charge -0.51  # "Me MePhosphonate CH3-P"
Setting atom values ...
  0 settings made for charge
    set type 397 charge 0.08  # "Me MePhosphonate CH3-P"
Setting atom values ...
  0 settings made for charge
    set type 398 charge -0.14  # "Bz MePhosphonate Cipso"
Setting atom values ...
  0 settings made for charge
    set type 399 charge 0.32  # "Bz MePhosphonate CH3-O"
Setting atom values ...
  0 settings made for charge
    set type 400 charge 0.02  # "Bz MePhosphonate CH3-O"
Setting atom values ...
  0 settings made for charge
    set type 401 charge -0.04  # "Me BzPhosphonate Cipso"
Setting atom values ...
  0 settings made for charge
    set type 402 charge -0.47  # "Me BzPhosphonate CH3-P"
Setting atom values ...
  0 settings made for charge
    set type 403 charge 0.12  # "Me BzPhosphonate CH3-P"
Setting atom values ...
  0 settings made for charge
    set type 404 charge 0.14  # "Ph Phosphate Cipso"
Setting atom values ...
  0 settings made for charge
    set type 405 charge 0.24  # "Barbiturate C6(R2)"
Setting atom values ...
  0 settings made for charge
    set type 406 charge 0.51  # "Ester -COOR"
Setting atom values ...
  0 settings made for charge
    set type 407 charge -0.43  # "Ester C=O"
Setting atom values ...
  0 settings made for charge
    set type 408 charge -0.33  # "Ester CO-O-R"
Setting atom values ...
  0 settings made for charge
    set type 409 charge 0.16  # "Methyl Ester -OCH3"
Setting atom values ...
  0 settings made for charge
    set type 410 charge 0.03  # "Ester -OCH<"
Setting atom values ...
  0 settings made for charge
    set type 411 charge 0.635  # "Benzoic Acid -COOH"
Setting atom values ...
  0 settings made for charge
    set type 412 charge 0.625  # "Aryl Ester -COOR"
Setting atom values ...
  0 settings made for charge
    set type 413 charge 0.135  # "Phenyl Ester Cipso"
Setting atom values ...
  0 settings made for charge
    set type 414 charge -0.215  # "Phenyl Ester -OPh"
Setting atom values ...
  0 settings made for charge
    set type 415 charge 1.48  # "Sulfonamide -SO2N<"
Setting atom values ...
  0 settings made for charge
    set type 416 charge -0.68  # "Sulfonamide -SO2N<"
Setting atom values ...
  0 settings made for charge
    set type 417 charge -0.54  # "Sulfonamide CH3-S"
Setting atom values ...
  0 settings made for charge
    set type 418 charge 0.18  # "Sulfonamide CH3-S"
Setting atom values ...
  0 settings made for charge
    set type 419 charge -1.0  # "Sulfonamide -SO2NH2"
Setting atom values ...
  0 settings made for charge
    set type 420 charge 0.44  # "Sulfonamide -SO2NH2"
Setting atom values ...
  0 settings made for charge
    set type 421 charge -0.8  # "Sulfonamide -SO2NHR"
Setting atom values ...
  0 settings made for charge
    set type 422 charge 0.41  # "Sulfonamide -SO2NHR"
Setting atom values ...
  0 settings made for charge
    set type 423 charge 0.18  # "N-Me Sulfonamide CH3-"
Setting atom values ...
  0 settings made for charge
    set type 424 charge 0.03  # "N-Me Sulfonamide CH3-"
Setting atom values ...
  0 settings made for charge
    set type 425 charge 0.39  # "Sulfonamide N-CH2-R"
Setting atom values ...
  0 settings made for charge
    set type 426 charge -0.06  # "Sulfonamide N-CH2-R"
Setting atom values ...
  0 settings made for charge
    set type 427 charge -0.18  # "N-Et Sulfonamide CH3-"
Setting atom values ...
  0 settings made for charge
    set type 428 charge 0.06  # "N-Et Sulfonamide CH3-"
Setting atom values ...
  0 settings made for charge
    set type 429 charge 0.0  # "Aryl Sulfonamide C-SO2N"
Setting atom values ...
  0 settings made for charge
    set type 430 charge 0.03  # "Aryl Sulfoxide C-S=O"
Setting atom values ...
  0 settings made for charge
    set type 431 charge 0.19  # "Et Ester -OCH2R"
Setting atom values ...
  0 settings made for charge
    set type 432 charge 0.22  # "i-Pr Ester -OCHR2"
Setting atom values ...
  0 settings made for charge
    set type 433 charge 0.25  # "t-Bu Ester -OCR3"
Setting atom values ...
  0 settings made for charge
    set type 434 charge 1.374  # "Sulfone R-SO2-R"
Setting atom values ...
  0 settings made for charge
    set type 435 charge -0.687  # "Sulfone R-SO2-R"
Setting atom values ...
  0 settings made for charge
    set type 436 charge 0.245  # "Alkyl Aryl Sulfoxide"
Setting atom values ...
  0 settings made for charge
    set type 437 charge 0.13  # "Dialkyl Sulfoxide"
Setting atom values ...
  0 settings made for charge
    set type 438 charge -0.42  # "Sulfoxide R-SO-R"
Setting atom values ...
  0 settings made for charge
    set type 439 charge -0.035  # "Sulfoxide CH3-SO-R"
Setting atom values ...
  0 settings made for charge
    set type 440 charge 0.025  # "Sulfoxide -CH2-SO-R"
Setting atom values ...
  0 settings made for charge
    set type 441 charge 0.075  # "TRP CG"
Setting atom values ...
  0 settings made for charge
    set type 442 charge -0.055  # "TRP CD"
Setting atom values ...
  0 settings made for charge
    set type 443 charge 0.13  # "TRP CE"
Setting atom values ...
  0 settings made for charge
    set type 444 charge -0.57  # "TRP NE, HID ND & HIE NE"
Setting atom values ...
  0 settings made for charge
    set type 445 charge 0.42  # "TRP HNE & HID/HIE HN"
Setting atom values ...
  0 settings made for charge
    set type 446 charge -0.005  # "HIS CB"
Setting atom values ...
  0 settings made for charge
    set type 447 charge 0.295  # "HID & HIE CE1"
Setting atom values ...
  0 settings made for charge
    set type 448 charge -0.015  # "HID CD2 & HIE CG"
Setting atom values ...
  0 settings made for charge
    set type 449 charge 0.015  # "HID CG & HIE CD2"
Setting atom values ...
  0 settings made for charge
    set type 450 charge 0.385  # "HIP CE1"
Setting atom values ...
  0 settings made for charge
    set type 451 charge 0.215  # "HIP CG & CD2"
Setting atom values ...
  0 settings made for charge
    set type 452 charge -0.49  # "HID NE & HIE ND"
Setting atom values ...
  0 settings made for charge
    set type 453 charge -0.54  # "HIP ND & NE"
Setting atom values ...
  0 settings made for charge
    set type 454 charge 0.46  # "HIP HND & HNE"
Setting atom values ...
  0 settings made for charge
    set type 455 charge -0.115  # "TRP CD1"
Setting atom values ...
  0 settings made for charge
    set type 456 charge 0.055  # "i-Pr Benzene -CHMe2"
Setting atom values ...
  0 settings made for charge
    set type 457 charge 0.115  # "t-Bu Benzene -CMe3"
Setting atom values ...
  0 settings made for charge
    set type 458 charge -0.03  # "Vinyl Ether =CH-OR"
Setting atom values ...
  0 settings made for charge
    set type 459 charge 0.085  # "Vinyl Ether =CR-OR"
Setting atom values ...
  0 settings made for charge
    set type 460 charge 0.0  # "Biphenyl C1"
Setting atom values ...
  0 settings made for charge
    set type 461 charge -0.678  # "Pyridine N"
Setting atom values ...
  0 settings made for charge
    set type 462 charge 0.473  # "Pyridine C1"
Setting atom values ...
  0 settings made for charge
    set type 463 charge -0.447  # "Pyridine C2"
Setting atom values ...
  0 settings made for charge
    set type 464 charge 0.227  # "Pyridine C3"
Setting atom values ...
  0 settings made for charge
    set type 465 charge 0.012  # "Pyridine H1"
Setting atom values ...
  0 settings made for charge
    set type 466 charge 0.155  # "Pyridine H2"
Setting atom values ...
  0 settings made for charge
    set type 467 charge 0.065  # "Pyridine H3"
Setting atom values ...
  0 settings made for charge
    set type 468 charge -0.468  # "Pyrazine N"
Setting atom values ...
  0 settings made for charge
    set type 469 charge 0.192  # "Pyrazine CH"
Setting atom values ...
  0 settings made for charge
    set type 470 charge 0.042  # "Pyrazine CH"
Setting atom values ...
  0 settings made for charge
    set type 471 charge -0.839  # "Pyrimidine N"
Setting atom values ...
  0 settings made for charge
    set type 472 charge 0.874  # "Pyrimidine C2"
Setting atom values ...
  0 settings made for charge
    set type 473 charge 0.653  # "Pyrimidine C4"
Setting atom values ...
  0 settings made for charge
    set type 474 charge -0.689  # "Pyrimidine C5"
Setting atom values ...
  0 settings made for charge
    set type 475 charge -0.032  # "Pyrimidine HC2"
Setting atom values ...
  0 settings made for charge
    set type 476 charge 0.011  # "Pyrimidine HC4"
Setting atom values ...
  0 settings made for charge
    set type 477 charge 0.197  # "Pyrimidine HC5"
Setting atom values ...
  0 settings made for charge
    set type 478 charge -0.331  # "Pyridazine N"
Setting atom values ...
  0 settings made for charge
    set type 479 charge 0.378  # "Pyridazine C3"
Setting atom values ...
  0 settings made for charge
    set type 480 charge -0.16  # "Pyridazine C4"
Setting atom values ...
  0 settings made for charge
    set type 481 charge -0.009  # "Pyridazine HC3"
Setting atom values ...
  0 settings made for charge
    set type 482 charge 0.122  # "Pyridazine HC4"
Setting atom values ...
  0 settings made for charge
    set type 483 charge -0.239  # "Pyrrole N"
Setting atom values ...
  0 settings made for charge
    set type 484 charge -0.163  # "Pyrrole C2"
Setting atom values ...
  0 settings made for charge
    set type 485 charge -0.149  # "Pyrrole C3"
Setting atom values ...
  0 settings made for charge
    set type 486 charge 0.317  # "Pyrrole HN"
Setting atom values ...
  0 settings made for charge
    set type 487 charge 0.155  # "Pyrrole HC2"
Setting atom values ...
  0 settings made for charge
    set type 488 charge 0.118  # "Pyrrole HC3"
Setting atom values ...
  0 settings made for charge
    set type 489 charge -0.059  # "Pyrazole N1"
Setting atom values ...
  0 settings made for charge
    set type 490 charge -0.491  # "Pyrazole N2"
Setting atom values ...
  0 settings made for charge
    set type 491 charge 0.246  # "Pyrazole C3"
Setting atom values ...
  0 settings made for charge
    set type 492 charge -0.32  # "Pyrazole C4"
Setting atom values ...
  0 settings made for charge
    set type 493 charge -0.034  # "Pyrazole C5"
Setting atom values ...
  0 settings made for charge
    set type 494 charge 0.301  # "Pyrazole HN1"
Setting atom values ...
  0 settings made for charge
    set type 495 charge 0.072  # "Pyrazole HC3"
Setting atom values ...
  0 settings made for charge
    set type 496 charge 0.15  # "Pyrazole HC4"
Setting atom values ...
  0 settings made for charge
    set type 497 charge 0.135  # "Pyrazole HC5"
Setting atom values ...
  0 settings made for charge
    set type 498 charge -0.257  # "Imidazole N1"
Setting atom values ...
  216 settings made for charge
    set type 499 charge 0.275  # "Imidazole C2"
Setting atom values ...
  216 settings made for charge
    set type 500 charge -0.563  # "Imidazole N3"
Setting atom values ...
  216 settings made for charge
    set type 501 charge 0.185  # "Imidazole C4"
Setting atom values ...
  216 settings made for charge
    set type 502 charge -0.286  # "Imidazole C5"
Setting atom values ...
  216 settings made for charge
    set type 503 charge 0.306  # "Imidazole HN1"
Setting atom values ...
  216 settings made for charge
    set type 504 charge 0.078  # "Imidazole HC2"
Setting atom values ...
  216 settings made for charge
    set type 505 charge 0.075  # "Imidazole HC4"
Setting atom values ...
  216 settings made for charge
    set type 506 charge 0.187  # "Imidazole HC5"
Setting atom values ...
  216 settings made for charge
    set type 507 charge -0.19  # "Furan O"
Setting atom values ...
  0 settings made for charge
    set type 508 charge -0.019  # "Furan C2"
Setting atom values ...
  0 settings made for charge
    set type 509 charge -0.154  # "Furan C3"
Setting atom values ...
  0 settings made for charge
    set type 510 charge 0.142  # "Furan HC2"
Setting atom values ...
  0 settings made for charge
    set type 511 charge 0.126  # "Furan HC3"
Setting atom values ...
  0 settings made for charge
    set type 512 charge -0.257  # "Oxazole O"
Setting atom values ...
  0 settings made for charge
    set type 513 charge 0.511  # "Oxazole C2"
Setting atom values ...
  0 settings made for charge
    set type 514 charge -0.59  # "Oxazole N"
Setting atom values ...
  0 settings made for charge
    set type 515 charge 0.169  # "Oxazole C4"
Setting atom values ...
  0 settings made for charge
    set type 516 charge -0.148  # "Oxazole C5"
Setting atom values ...
  0 settings made for charge
    set type 517 charge 0.043  # "Oxazole HC2"
Setting atom values ...
  0 settings made for charge
    set type 518 charge 0.091  # "Oxazole HC4"
Setting atom values ...
  0 settings made for charge
    set type 519 charge 0.181  # "Oxazole HC5"
Setting atom values ...
  0 settings made for charge
    set type 520 charge -0.122  # "Isoxazole O"
Setting atom values ...
  0 settings made for charge
    set type 521 charge -0.413  # "Isoxazole N"
Setting atom values ...
  0 settings made for charge
    set type 522 charge 0.405  # "Isoxazole C3"
Setting atom values ...
  0 settings made for charge
    set type 523 charge -0.455  # "Isoxazole C4"
Setting atom values ...
  0 settings made for charge
    set type 524 charge 0.25  # "Isoxazole C5"
Setting atom values ...
  0 settings made for charge
    set type 525 charge 0.053  # "Isoxazole HC3"
Setting atom values ...
  0 settings made for charge
    set type 526 charge 0.184  # "Isoxazole HC4"
Setting atom values ...
  0 settings made for charge
    set type 527 charge 0.098  # "Isoxazole HC5"
Setting atom values ...
  0 settings made for charge
    set type 528 charge -0.5  # "Indole N1"
Setting atom values ...
  0 settings made for charge
    set type 529 charge 0.001  # "Indole C2"
Setting atom values ...
  0 settings made for charge
    set type 530 charge -0.39  # "Indole C3"
Setting atom values ...
  0 settings made for charge
    set type 531 charge -0.27  # "Indole C4"
Setting atom values ...
  0 settings made for charge
    set type 532 charge -0.127  # "Indole C5"
Setting atom values ...
  0 settings made for charge
    set type 533 charge -0.108  # "Indole C6"
Setting atom values ...
  0 settings made for charge
    set type 534 charge -0.258  # "Indole C7"
Setting atom values ...
  0 settings made for charge
    set type 535 charge 0.22  # "Indole C8"
Setting atom values ...
  0 settings made for charge
    set type 536 charge 0.225  # "Indole C9"
Setting atom values ...
  0 settings made for charge
    set type 537 charge 0.376  # "Indole HN1"
Setting atom values ...
  0 settings made for charge
    set type 538 charge 0.147  # "Indole HC2"
Setting atom values ...
  0 settings made for charge
    set type 539 charge 0.172  # "Indole HC3"
Setting atom values ...
  0 settings made for charge
    set type 540 charge 0.155  # "Indole HC4"
Setting atom values ...
  0 settings made for charge
    set type 541 charge 0.107  # "Indole HC5"
Setting atom values ...
  0 settings made for charge
    set type 542 charge 0.11  # "Indole HC6"
Setting atom values ...
  0 settings made for charge
    set type 543 charge 0.14  # "Indole HC7"
Setting atom values ...
  0 settings made for charge
    set type 544 charge -0.694  # "Quinoline N1"
Setting atom values ...
  0 settings made for charge
    set type 545 charge 0.425  # "Quinoline C2"
Setting atom values ...
  0 settings made for charge
    set type 546 charge -0.359  # "Quinoline C3"
Setting atom values ...
  0 settings made for charge
    set type 547 charge -0.008  # "Quinoline C4"
Setting atom values ...
  0 settings made for charge
    set type 548 charge -0.197  # "Quinoline C5"
Setting atom values ...
  0 settings made for charge
    set type 549 charge -0.112  # "Quinoline C6"
Setting atom values ...
  0 settings made for charge
    set type 550 charge -0.07  # "Quinoline C7"
Setting atom values ...
  0 settings made for charge
    set type 551 charge -0.307  # "Quinoline C8"
Setting atom values ...
  0 settings made for charge
    set type 552 charge 0.563  # "Quinoline C9"
Setting atom values ...
  0 settings made for charge
    set type 553 charge -0.051  # "Quinoline C10"
Setting atom values ...
  0 settings made for charge
    set type 554 charge 0.028  # "Quinoline HC2"
Setting atom values ...
  0 settings made for charge
    set type 555 charge 0.146  # "Quinoline HC3"
Setting atom values ...
  0 settings made for charge
    set type 556 charge 0.119  # "Quinoline HC4"
Setting atom values ...
  0 settings made for charge
    set type 557 charge 0.133  # "Quinoline HC5"
Setting atom values ...
  0 settings made for charge
    set type 558 charge 0.113  # "Quinoline HC6"
Setting atom values ...
  0 settings made for charge
    set type 559 charge 0.114  # "Quinoline HC7"
Setting atom values ...
  0 settings made for charge
    set type 560 charge 0.157  # "Quinoline HC8"
Setting atom values ...
  0 settings made for charge
    set type 561 charge -0.76  # "Purine N1"
Setting atom values ...
  0 settings made for charge
    set type 562 charge 0.679  # "Purine C2"
Setting atom values ...
  0 settings made for charge
    set type 563 charge -0.788  # "Purine N3"
Setting atom values ...
  0 settings made for charge
    set type 564 charge 0.736  # "Purine C4"
Setting atom values ...
  0 settings made for charge
    set type 565 charge 0.038  # "Purine C5"
Setting atom values ...
  0 settings made for charge
    set type 566 charge 0.343  # "Purine C6"
Setting atom values ...
  0 settings made for charge
    set type 567 charge -0.642  # "Purine N7"
Setting atom values ...
  0 settings made for charge
    set type 568 charge 0.452  # "Purine C8"
Setting atom values ...
  0 settings made for charge
    set type 569 charge -0.682  # "Purine N9"
Setting atom values ...
  0 settings made for charge
    set type 570 charge 0.024  # "Purine HC2"
Setting atom values ...
  0 settings made for charge
    set type 571 charge 0.101  # "Purine HC6"
Setting atom values ...
  0 settings made for charge
    set type 572 charge 0.086  # "Purine HC8"
Setting atom values ...
  0 settings made for charge
    set type 573 charge 0.413  # "Purine HN9"
Setting atom values ...
  0 settings made for charge
    set type 574 charge -0.03  # "Thiazole S"
Setting atom values ...
  0 settings made for charge
    set type 575 charge 0.242  # "Thiazole C2"
Setting atom values ...
  0 settings made for charge
    set type 576 charge -0.515  # "Thiazole N"
Setting atom values ...
  0 settings made for charge
    set type 577 charge 0.228  # "Thiazole C4"
Setting atom values ...
  0 settings made for charge
    set type 578 charge -0.299  # "Thiazole C5"
Setting atom values ...
  0 settings made for charge
    set type 579 charge 0.101  # "Thiazole HC2"
Setting atom values ...
  0 settings made for charge
    set type 580 charge 0.068  # "Thiazole HC4"
Setting atom values ...
  0 settings made for charge
    set type 581 charge 0.205  # "Thiazole HC5"
Setting atom values ...
  0 settings made for charge
    set type 582 charge -0.951  # "1,3,5-Triazine N"
Setting atom values ...
  0 settings made for charge
    set type 583 charge 0.965  # "1,3,5-Triazine CH"
Setting atom values ...
  0 settings made for charge
    set type 584 charge -0.014  # "1,3,5-Triazine CH"
Setting atom values ...
  0 settings made for charge
    set type 585 charge 0.13  # "Serotonin C5-OH"
Setting atom values ...
  0 settings made for charge
    set type 586 charge 0.052  # "Serotonin CH2 on C3"
Setting atom values ...
  0 settings made for charge
    set type 587 charge -0.599  # "1,10-Phenanthroline N"
Setting atom values ...
  0 settings made for charge
    set type 588 charge 0.392  # "1,10-Phenanthroline C2"
Setting atom values ...
  0 settings made for charge
    set type 589 charge -0.348  # "1,10-Phenanthroline C3"
Setting atom values ...
  0 settings made for charge
    set type 590 charge 0.02  # "1,10-Phenanthroline C4"
Setting atom values ...
  0 settings made for charge
    set type 591 charge -0.042  # "1,10-Phenanthroline C12"
Setting atom values ...
  0 settings made for charge
    set type 592 charge 0.347  # "1,10-Phenanthroline C11"
Setting atom values ...
  0 settings made for charge
    set type 593 charge -0.196  # "1,10-Phenanthroline C5"
Setting atom values ...
  0 settings made for charge
    set type 594 charge 0.032  # "1,10-Phenanthroline HC2"
Setting atom values ...
  0 settings made for charge
    set type 595 charge 0.146  # "1,10-Phenanthroline HC3"
Setting atom values ...
  0 settings made for charge
    set type 596 charge 0.108  # "1,10-Phenanthroline HC4"
Setting atom values ...
  0 settings made for charge
    set type 597 charge 0.14  # "1,10-Phenanthroline HC5"
Setting atom values ...
  0 settings made for charge
    set type 598 charge 0.122  # "1-Methylimidazole N1"
Setting atom values ...
  0 settings made for charge
    set type 599 charge 0.166  # "1-Methylimidazole C2"
Setting atom values ...
  0 settings made for charge
    set type 600 charge -0.58  # "1-Methylimidazole N3"
Setting atom values ...
  0 settings made for charge
    set type 601 charge 0.173  # "1-Methylimidazole C4"
Setting atom values ...
  0 settings made for charge
    set type 602 charge -0.395  # "1-Methylimidazole C5"
Setting atom values ...
  0 settings made for charge
    set type 603 charge -0.199  # "1-Methylimidazole CH3-"
Setting atom values ...
  0 settings made for charge
    set type 604 charge 0.118  # "1-Methylimidazole HC2"
Setting atom values ...
  0 settings made for charge
    set type 605 charge 0.093  # "1-Methylimidazole HC4"
Setting atom values ...
  0 settings made for charge
    set type 606 charge 0.208  # "1-Methylimidazole HC5"
Setting atom values ...
  0 settings made for charge
    set type 607 charge 0.098  # "1-Methylimidazole CH3-"
Setting atom values ...
  0 settings made for charge
    set type 608 charge -0.139  # "1-Et Imidazole RCH2-"
Setting atom values ...
  0 settings made for charge
    set type 609 charge -0.079  # "1-iPr Imidazole R2CH-"
Setting atom values ...
  0 settings made for charge
    set type 610 charge 0.099  # "1-MeO-Me-Imidazole CH2"
Setting atom values ...
  0 settings made for charge
    set type 611 charge -0.168  # "2-Me Pyridine CH3"
Setting atom values ...
  0 settings made for charge
    set type 612 charge -0.108  # "2-Et Pyridine CH2"
Setting atom values ...
  0 settings made for charge
    set type 613 charge -0.189  # "3-Me Pyridazine CH3"
Setting atom values ...
  0 settings made for charge
    set type 614 charge -0.129  # "3-Et Pyridazine CH2"
Setting atom values ...
  0 settings made for charge
    set type 615 charge -0.169  # "4-Me Pyrimidine CH3"
Setting atom values ...
  0 settings made for charge
    set type 616 charge -0.109  # "4-Et Pyrimidine CH2"
Setting atom values ...
  0 settings made for charge
    set type 617 charge -0.138  # "2-Me Pyrazine CH3"
Setting atom values ...
  0 settings made for charge
    set type 618 charge -0.078  # "2-Et Pyrazine CH2"
Setting atom values ...
  0 settings made for charge
    set type 619 charge -0.025  # "2-Me Pyrrole CH3"
Setting atom values ...
  0 settings made for charge
    set type 620 charge 0.035  # "2-Et Pyrrole CH2"
Setting atom values ...
  0 settings made for charge
    set type 621 charge -0.038  # "2-Me Furan CH3"
Setting atom values ...
  0 settings made for charge
    set type 622 charge 0.022  # "2-Et Furan CH2"
Setting atom values ...
  0 settings made for charge
    set type 623 charge -0.334  # "6-Mercaptopurine SH"
Setting atom values ...
  0 settings made for charge
    set type 624 charge 0.255  # "6-Mercaptopurine SH"
Setting atom values ...
  0 settings made for charge
    set type 625 charge 0.523  # "6-Mercaptopurine C6"
Setting atom values ...
  0 settings made for charge
    set type 626 charge 0.5  # "Beta-Lactam N-C=O"
Setting atom values ...
  0 settings made for charge
    set type 627 charge -0.14  # "Beta-Lactam N-C=O"
Setting atom values ...
  0 settings made for charge
    set type 628 charge 0.2275  # "Penicillin CH-N"
Setting atom values ...
  0 settings made for charge
    set type 629 charge 0.14  # "Penicillin CH-CO"
Setting atom values ...
  0 settings made for charge
    set type 630 charge -0.008  # "3-Me Indole CH3"
Setting atom values ...
  0 settings made for charge
    set type 631 charge 0.588  # "2-Phenyl Pyridine C2"
Setting atom values ...
  0 settings made for charge
    set type 632 charge -0.103  # "2-Phenyl Pyridine C2'"
Setting atom values ...
  0 settings made for charge
    set type 633 charge -0.332  # "2-Phenyl Pyridine C3"
Setting atom values ...
  0 settings made for charge
    set type 634 charge 0.04  # "2-Phenyl Pyridine C3'"
Setting atom values ...
  0 settings made for charge
    set type 635 charge 0.342  # "2-Phenyl Pyridine C4"
Setting atom values ...
  0 settings made for charge
    set type 636 charge -0.05  # "2-Phenyl Pyridine C4'"
Setting atom values ...
  0 settings made for charge
    set type 637 charge -0.205  # "Diphenyl Thioether S"
Setting atom values ...
  0 settings made for charge
    set type 638 charge 3.0  # "Actinium Ion Ac+3"
Setting atom values ...
  0 settings made for charge
    set type 639 charge 4.0  # "Thorium Ion Th+4"
Setting atom values ...
  0 settings made for charge
    set type 640 charge 3.0  # "Americium Ion Am+3"
Setting atom values ...
  0 settings made for charge
    set type 641 charge 0.619  # "t-Butyl Cation C+"
Setting atom values ...
  0 settings made for charge
    set type 642 charge -0.395  # "t-Butyl Cation CH3-"
Setting atom values ...
  0 settings made for charge
    set type 643 charge 0.174  # "t-Butyl Cation CH3-"
Setting atom values ...
  0 settings made for charge
    set type 644 charge 3.0  # "Lanthanum Ion La+3"
Setting atom values ...
  0 settings made for charge
    set type 645 charge 3.0  # "Neodymium Ion Nd+3"
Setting atom values ...
  0 settings made for charge
    set type 646 charge 3.0  # "Europium Ion Eu+3"
Setting atom values ...
  0 settings made for charge
    set type 647 charge 3.0  # "Gadolinium Ion Gd+3"
Setting atom values ...
  0 settings made for charge
    set type 648 charge 3.0  # "Ytterbium Ion Yb+3"
Setting atom values ...
  0 settings made for charge
    set type 649 charge -0.344  # "Cl..CH3..Cl- Sn2 TS"
Setting atom values ...
  0 settings made for charge
    set type 650 charge -0.628  # "Cl..CH3..Cl- Sn2 TS"
Setting atom values ...
  0 settings made for charge
    set type 651 charge 0.2  # "Cl..CH3..Cl- Sn2 TS"
Setting atom values ...
  0 settings made for charge
    set type 652 charge -0.12  # "Cyclopropane -CH2-"
Setting atom values ...
  0 settings made for charge
    set type 653 charge -0.06  # "Cyclopropane -CHR-"
Setting atom values ...
  0 settings made for charge
    set type 654 charge 0.0  # "Cyclopropane -CR2-"
Setting atom values ...
  0 settings made for charge
    set type 655 charge -0.23  # "Cyclopentadienyl Anion"
Setting atom values ...
  0 settings made for charge
    set type 656 charge 0.03  # "Cyclopentadienyl Anion"
Setting atom values ...
  0 settings made for charge
    set type 657 charge -0.099  # "Cyclopentadienyl Radical"
Setting atom values ...
  0 settings made for charge
    set type 658 charge 0.099  # "Cyclopentadienyl Radical"
Setting atom values ...
  0 settings made for charge
    set type 659 charge 0.22  # "Fluorobenzene CF"
Setting atom values ...
  0 settings made for charge
    set type 660 charge -0.22  # "Fluorobenzene CF"
Setting atom values ...
  0 settings made for charge
    set type 661 charge 0.13  # "Hexafluorobenzene CF"
Setting atom values ...
  0 settings made for charge
    set type 662 charge -0.13  # "Hexafluorobenzene CF"
Setting atom values ...
  0 settings made for charge
    set type 663 charge -0.22  # "Bromide -CH2-Br (UA)"
Setting atom values ...
  0 settings made for charge
    set type 664 charge 0.22  # "Bromide -CH2-Br (UA)"
Setting atom values ...
  0 settings made for charge
    set type 665 charge 0.15  # "TrifluoroMeBenzene C-CF3"
Setting atom values ...
  0 settings made for charge
    set type 666 charge 0.45  # "TrifluoroMeBenzene CF3-"
Setting atom values ...
  0 settings made for charge
    set type 667 charge -0.2  # "TrifluoroMeBenzene CF3-"
Setting atom values ...
  0 settings made for charge
    set type 668 charge 0.2  # "Difluorobenzene CF"
Setting atom values ...
  0 settings made for charge
    set type 669 charge -0.2  # "Difluorobenzene CF"
Setting atom values ...
  0 settings made for charge
    set type 670 charge 0.2  # "Bromobenzene CBr"
Setting atom values ...
  0 settings made for charge
    set type 671 charge -0.2  # "Bromobenzene CBr"
Setting atom values ...
  0 settings made for charge
    set type 672 charge 0.1  # "Iodobenzene CI"
Setting atom values ...
  0 settings made for charge
    set type 673 charge -0.1  # "Iodobenzene CI"
Setting atom values ...
  0 settings made for charge
    set type 674 charge 0.055  # "cProp/cBut Benzene C-Ar"
Setting atom values ...
  0 settings made for charge
    set type 675 charge -0.22  # "Thiophenol SH"
Setting atom values ...
  0 settings made for charge
    set type 676 charge 0.065  # "Thiophenol C-SH"
Setting atom values ...
  0 settings made for charge
    set type 677 charge 0.013  # "Benzamidine CG"
Setting atom values ...
  0 settings made for charge
    set type 678 charge -0.106  # "Benzamidine CD"
Setting atom values ...
  0 settings made for charge
    set type 679 charge -0.09  # "Benzamidine CE"
Setting atom values ...
  0 settings made for charge
    set type 680 charge -0.119  # "Benzamidine CZ"
Setting atom values ...
  0 settings made for charge
    set type 681 charge 0.141  # "Benzamidine HCD"
Setting atom values ...
  0 settings made for charge
    set type 682 charge 0.129  # "Benzamidine HCE"
Setting atom values ...
  0 settings made for charge
    set type 683 charge 0.827  # "Benzamidine C+"
Setting atom values ...
  0 settings made for charge
    set type 684 charge -0.885  # "Benzamidine -NH2"
Setting atom values ...
  0 settings made for charge
    set type 685 charge 0.426  # "Benzamidine H1-N"
Setting atom values ...
  0 settings made for charge
    set type 686 charge 0.465  # "Benzamidine H2-N"
Setting atom values ...
  0 settings made for charge
    set type 687 charge 0.119  # "Benzamidine HCG"
Setting atom values ...
  0 settings made for charge
    set type 688 charge -0.02  # "Neutral MeGdn CH3-"
Setting atom values ...
  0 settings made for charge
    set type 689 charge 0.04  # "Neutral ARG CD"
Setting atom values ...
  0 settings made for charge
    set type 690 charge -0.62  # "Neutral ARG NE"
Setting atom values ...
  0 settings made for charge
    set type 691 charge -0.785  # "Neutral ARG N1 (HN=C)"
Setting atom values ...
  0 settings made for charge
    set type 692 charge -0.785  # "Neutral ARG N2 (H2N-C)"
Setting atom values ...
  0 settings made for charge
    set type 693 charge 0.55  # "Neutral ARG CZ (>C=)"
Setting atom values ...
  0 settings made for charge
    set type 694 charge -0.56  # "Alkyl Nitrile -CN"
Setting atom values ...
  0 settings made for charge
    set type 695 charge 0.46  # "Alkyl Nitrile -CN"
Setting atom values ...
  0 settings made for charge
    set type 696 charge -0.08  # "Acetonitrile CH3-CN"
Setting atom values ...
  0 settings made for charge
    set type 697 charge -0.02  # "Alkyl Nitrile RCH2-CN"
Setting atom values ...
  0 settings made for charge
    set type 698 charge 0.04  # "Alkyl Nitrile R2CH-CN"
Setting atom values ...
  0 settings made for charge
    set type 699 charge 0.1  # "Alkyl Nitrile R3C-CN"
Setting atom values ...
  0 settings made for charge
    set type 700 charge 0.06  # "Alkyl Nitrile H-C-CN"
Setting atom values ...
  0 settings made for charge
    set type 701 charge 0.54  # "Nitroalkane -NO2"
Setting atom values ...
  0 settings made for charge
    set type 702 charge -0.37  # "Nitroalkane -NO2"
Setting atom values ...
  0 settings made for charge
    set type 703 charge 0.02  # "Nitromethane CH3-NO2"
Setting atom values ...
  0 settings made for charge
    set type 704 charge 0.06  # "Nitroalkane H-C-NO2"
Setting atom values ...
  0 settings made for charge
    set type 705 charge 0.08  # "Nitroalkane RCH2-NO2"
Setting atom values ...
  0 settings made for charge
    set type 706 charge 0.14  # "Nitroalkane R2CH-NO2"
Setting atom values ...
  0 settings made for charge
    set type 707 charge 0.2  # "Nitroalkane R3C-NO2"
Setting atom values ...
  0 settings made for charge
    set type 708 charge 0.65  # "Nitrobenzene -NO2"
Setting atom values ...
  0 settings made for charge
    set type 709 charge 0.09  # "Nitrobenzene C-NO2"
Setting atom values ...
  0 settings made for charge
    set type 710 charge 0.035  # "Benzonitrile -CH2-"
Setting atom values ...
  0 settings made for charge
    set type 711 charge -0.9  # "Neutral Benzamidine N"
Setting atom values ...
  0 settings made for charge
    set type 712 charge -0.5  # "Propylene Carbonate C=O"
Setting atom values ...
  0 settings made for charge
    set type 713 charge 0.86  # "Propylene Carbonate C=O"
Setting atom values ...
  0 settings made for charge
    set type 714 charge -0.45  # "Propylene Carbonate C-O"
Setting atom values ...
  0 settings made for charge
    set type 715 charge 0.21  # "Propylene Carbonate CH2"
Setting atom values ...
  0 settings made for charge
    set type 716 charge 0.16  # "Propylene Carbonate CH"
Setting atom values ...
  0 settings made for charge
    set type 717 charge -0.1  # "Propylene Carbonate CH3"
Setting atom values ...
  0 settings made for charge
    set type 718 charge 0.03  # "Propylene Carbonate CH2"
Setting atom values ...
  0 settings made for charge
    set type 719 charge 0.03  # "Propylene Carbonate CH"
Setting atom values ...
  0 settings made for charge
    set type 720 charge 0.06  # "Propylene Carbonate CH3"
Setting atom values ...
  0 settings made for charge
    set type 721 charge -0.78  # "GTP O-(POn)2"
Setting atom values ...
  0 settings made for charge
    set type 722 charge 0.9684  # "Phosphonium R4P+"
Setting atom values ...
  0 settings made for charge
    set type 723 charge -0.5081  # "Phosphonium CH3-PR3+"
Setting atom values ...
  0 settings made for charge
    set type 724 charge -0.008  # "Phosphonium RCH2-PR3+"
Setting atom values ...
  0 settings made for charge
    set type 725 charge 0.172  # "Phosphonium CH3-PR3+"
Setting atom values ...
  0 settings made for charge
    set type 726 charge 1.34  # "Hexafluorophosphate Ion"
Setting atom values ...
  0 settings made for charge
    set type 727 charge -0.39  # "Hexafluorophosphate Ion"
Setting atom values ...
  0 settings made for charge
    set type 728 charge 0.794  # "Nitrate Ion NO3-"
Setting atom values ...
  0 settings made for charge
    set type 729 charge -0.598  # "Nitrate Ion NO3-"
Setting atom values ...
  0 settings made for charge
    set type 730 charge -0.9  # "Amine RNH2"
Setting atom values ...
  0 settings made for charge
[...]
   81600    301.74965   -16445.674    2066.9695   -12436.774    12.897578    196954.65 
   81700    293.35389   -16433.229    2109.5816   -12435.748      66.0563    197174.21 
   81800     300.3701   -16471.121    2087.0532   -12451.016    38.211475     195528.5 
   81900    304.49826   -16492.961    2090.1803   -12443.162    127.58566    195580.07 
   82000    298.53615   -16450.535    2104.4657   -12424.819    45.885236    197707.47 
   82100    303.96361   -16418.561    2051.9114   -12410.471    41.503157    199609.87 
   82200    301.06031   -16444.155    2059.1933   -12447.468    13.549169    196814.17 
   82300    297.84607    -16457.86    2103.4266   -12437.624    136.44143    196838.93 
   82400    298.10251   -16437.673    2098.7651   -12420.448    81.029181    197274.56 
   82500    300.49346   -16482.511    2101.7312   -12446.934    33.420867    194816.56 
   82600    298.29329   -16495.838    2113.1326   -12463.018    39.541868    193912.39 
   82700     297.0926   -16488.774    2114.1165   -12462.697    25.561231    194795.17 
   82800    298.53778    -16448.16    2099.6056   -12427.294    78.849188    197712.83 
   82900     295.7202   -16421.836    2112.1899   -12406.519     145.1883    199006.53 
   83000    298.66777   -16474.736     2126.305   -12426.334    22.583027    197214.73 
   83100    302.54965   -16471.852    2066.9652   -12457.808   -37.550664    194954.17 
   83200    299.01397   -16463.717    2096.3661   -12443.026    77.292153    196037.38 
   83300    296.97071   -16462.865    2124.3814   -12427.308    45.096724     197536.1 
   83400    295.34852   -16455.194     2100.909   -12453.549    83.807432    195955.38 
   83500     296.0231    -16446.53    2111.0062   -12430.446    -8.519298    197135.42 
   83600    310.08746   -16425.544     2055.372   -12374.583    72.025011    199987.84 
   83700    302.58921   -16446.393    2118.7107   -12380.348   -32.989837    199442.73 
   83800    297.38154   -16466.686    2135.3956   -12417.471    79.322444    197337.15 
   83900     297.1477   -16453.585    2129.6044   -12411.666     71.86871    198799.84 
   84000     296.8697   -16412.042    2091.8463    -12409.67    100.05236    199375.12 
   84100    300.96435   -16438.349    2092.1848   -12409.287    79.259363    198943.34 
   84200     300.3957   -16437.547     2084.258   -12420.072   -72.975474    198399.59 
   84300     305.0776   -16450.103    2054.8455    -12431.91      106.432    197758.75 
   84400    298.79145   -16444.535    2101.6125   -12420.029     18.25588    198728.51 
   84500    298.01759   -16441.587    2106.6109   -12417.063    38.578902    199314.66 
   84600    301.80934   -16462.313    2069.2234   -12450.775    23.683568    197490.75 
   84700    292.51823   -16433.042    2130.3315   -12420.189   -14.224604     199266.8 
   84800    299.57256   -16421.193    2085.2742   -12407.999    83.220119    199556.26 
   84900     303.3654   -16452.045    2079.5695   -12420.146    24.038115    197747.26 
   85000    304.01438   -16471.868    2084.3404   -12431.022    55.718515    196609.96 
   85100    303.09782   -16464.923    2095.9727   -12418.343    52.871574    198097.81 
   85200    303.55389    -16476.02     2072.636   -12449.842    19.430584    196840.85 
   85300    299.94087   -16486.408    2072.4239   -12483.694    14.181694    194635.46 
   85400    297.96464   -16495.958    2102.0988   -12476.287    24.439486     194835.8 
   85500    295.69015     -16495.8    2126.8273   -12466.039    26.394949    195447.68 
   85600    295.59499   -16495.305    2120.1829     -12472.8     53.23345     195364.8 
   85700    301.99892   -16500.921    2081.8483   -12475.538     64.61393    195859.39 
   85800    300.18828   -16483.748    2066.5921   -12485.273    59.737149    195308.93 
   85900    302.45983   -16495.966    2077.4569   -12472.008    12.507094     195026.1 
   86000    296.36783   -16463.097    2121.6933   -12434.109   -28.257317     197385.2 
   86100    302.19989   -16425.038    2092.8107   -12387.399   -15.590829    200933.18 
   86200    305.50409   -16419.474    2056.8612    -12396.52    106.67914    200304.29 
   86300    299.24029   -16437.718    2115.4888   -12396.448   -18.368498    199581.94 
   86400    295.98435   -16429.134    2104.9058     -12419.4   -19.756071    197909.89 
   86500    298.23818    -16433.56    2095.4157   -12418.812    113.53122    198104.94 
   86600    298.82038   -16407.089    2092.9135   -12391.097      49.1242     200048.8 
   86700    296.39757   -16396.513    2119.9094   -12369.117    132.17272    201059.93 
   86800    296.44481   -16409.297    2131.6531   -12369.853    72.647477    200163.84 
   86900    300.31747   -16454.413    2111.8368   -12409.862    39.986731    197337.81 
   87000    303.76802    -16484.21    2094.0782   -12435.212    8.7902318    195930.33 
   87100    298.67265   -16487.431    2104.2863   -12461.016    44.207943    194739.63 
   87200    294.16834   -16454.126    2122.8704   -12438.115    4.2964865    196045.14 
   87300    297.18294   -16421.379    2098.3201   -12410.517    189.50139    198279.65 
   87400    300.74979   -16442.326    2097.8517   -12408.979      106.286    199054.59 
   87500    298.94333   -16456.673    2089.5457   -12443.257   -3.6439042    197315.97 
   87600    298.26616   -16467.441    2096.4254   -12451.504    116.50833    195913.13 
   87700    302.84547   -16464.293    2086.0427   -12429.267    29.154087    196834.73 
   87800    306.38098   -16455.263    2087.3121   -12396.215   -13.368874    199231.78 
   87900    300.34958   -16470.274    2115.4976   -12421.855    94.149857    198524.16 
   88000    297.26788   -16454.586    2096.4411   -12445.056    56.588993    197550.18 
   88100    298.66075   -16451.359    2101.6851   -12427.622   -51.421958    197895.71 
   88200    298.23721   -16436.385    2108.9623   -12408.097    93.947434    197935.08 
   88300     307.9504   -16446.154    2076.5407   -12387.778    120.76146    198700.39 
   88400     301.6298   -16445.289    2112.7838   -12391.346     56.56378    199335.49 
   88500    299.99965   -16447.185    2104.2624   -12412.254   -82.981141    198979.22 
   88600    303.27254   -16500.659    2084.3261   -12464.601    63.953194    195452.93 
   88700    306.44837    -16506.77    2053.3548   -12481.246    101.22174    194170.51 
   88800     292.7761   -16480.329     2133.167   -12462.981    44.279992    194926.43 
   88900    298.14134   -16439.022    2085.0525    -12435.26    39.694851    196853.13 
   89000    300.39574   -16471.547    2089.9658   -12448.364   -20.775924    195752.81 
   89100    295.82656   -16486.897    2124.8232   -12458.262    13.484077    194912.21 
   89200    296.31705   -16489.928    2125.8593     -12457.1    89.692463    194789.84 
   89300    297.28138   -16455.529    2102.0457   -12440.309   -1.1688462    195751.25 
   89400    306.57438    -16459.85    2067.2485   -12419.621    44.949905    197046.92 
   89500    304.29865   -16480.885     2086.812   -12435.738   -80.316582    196220.67 
   89600    301.54181   -16478.205     2096.094   -12441.518    138.35254    195964.26 
   89700    297.62945   -16452.311    2075.4972   -12461.399    102.80821    195157.81 
   89800    298.19177   -16448.158    2077.6882   -12451.436    88.258045    195450.38 
   89900    299.17338   -16443.475    2120.8335    -12397.29   -81.509519    198142.04 
   90000    296.35729   -16442.656    2135.6333   -12399.795   -34.377863    198203.05 
   90100    303.29335   -16474.114     2082.075   -12440.173    8.9330215    195620.17 
   90200    300.11762   -16487.927    2103.2142   -12453.285    38.303389     194676.1 
   90300    297.31336   -16461.915    2126.6706   -12421.863    58.602095     196724.9 
   90400    299.23522   -16402.819    2093.8022   -12383.268    38.467856    199557.25 
   90500    295.60692   -16394.553    2104.7946    -12387.36    86.511746    199057.04 
   90600    295.47356   -16465.177    2133.0982   -12430.538    77.810572     195174.6 
   90700    302.82583    -16492.14    2087.8929    -12455.39    100.51374    193530.81 
   90800    301.99005   -16449.983    2068.9843   -12437.521    78.558015    195893.95 
   90900    298.52223   -16445.333    2089.6269   -12434.545    50.353431    197437.22 
   91000    306.05755   -16480.278    2067.2316   -12443.392   -52.381372    197260.36 
   91100    299.91605   -16472.522    2065.0699   -12477.321    31.840427    194505.39 
   91200    306.77112   -16476.135    2060.1226   -12441.766    107.39568    196095.08 
   91300    302.65144    -16425.62    2095.6273   -12382.258    60.791438    200018.72 
   91400    302.76083   -16426.499    2093.4595   -12384.602   -84.872951    200649.11 
   91500     296.6028   -16440.184    2096.2264   -12435.149   -3.8694398    197517.22 
   91600    299.75207   -16445.411    2084.7528   -12431.583     6.568734    197882.03 
   91700    294.44296   -16390.243    2116.0769   -12379.258    119.68797    200994.31 
   91800    303.83287   -16373.534    2057.7681   -12360.428    66.312696    201655.29 
   91900    304.13165   -16404.871    2082.5104     -12365.1    77.783596    200649.12 
   92000    308.02957   -16414.714    2029.9106   -12402.458    45.970607    198551.24 
   92100     300.5701   -16443.511    2094.5991   -12414.572    87.116749    198323.42 
   92200    300.30096   -16437.542    2080.9363   -12423.998   -19.619746    198494.17 
   92300    296.76873   -16441.284    2092.2674   -12439.141     65.09448    197232.95 
   92400    297.53576   -16435.785    2102.0259   -12418.947   -14.709446    198041.37 
   92500    302.49548   -16463.055    2089.9977   -12426.326     76.83928    196444.25 
   92600    304.17569   -16476.944    2090.5848   -12428.816   -52.936531    195570.09 
   92700    301.30005   -16490.419    2086.6293   -12464.752    172.76311    194119.22 
   92800    304.77457   -16502.613    2068.0873   -12473.128    44.512496       195044 
   92900    302.84232   -16493.868    2067.4896   -12477.416    6.2200193    195074.36 
   93000    296.41585    -16491.15    2117.1559    -12466.39    15.328529    195235.42 
   93100    302.23954   -16478.893    2071.8214   -12461.988    54.967892    195685.55 
   93200    298.46391   -16484.797    2101.9863   -12462.026    118.42157    196588.31 
   93300    299.99351   -16469.949    2080.8982   -12458.421    17.540452    196717.46 
   93400    292.18638   -16450.899    2104.8527    -12465.66    -36.60054    194998.65 
   93500    306.15343   -16497.475    2071.1218   -12456.082    -74.35001    194357.09 
   93600     302.8855    -16479.42    2070.3557   -12459.823    169.99512    194164.87 
   93700    294.90511   -16470.205    2118.8012   -12453.522     54.48415    194528.82 
   93800    299.50891   -16432.002    2078.9171   -12425.575     67.36389    195780.64 
   93900    298.54462   -16426.068     2111.929   -12392.835    43.496369    197179.36 
   94000    299.39001   -16417.849    2093.8849   -12397.219    87.827656    197138.09 
   94100    294.96879   -16434.853    2120.2878   -12416.273   -29.989552    196532.69 
   94200    303.62956   -16483.907    2087.5181    -12442.36    86.475714     194706.9 
   94300     302.6284    -16478.34    2093.9776   -12436.777    1.8187028    195368.21 
   94400    305.29759   -16458.768    2089.8633   -12404.141    38.512002    197306.35 
   94500    299.47434   -16455.508    2113.9811    -12414.24     -156.129    196653.78 
   94600    296.73056   -16457.708    2111.6732   -12436.405     132.3699    195202.67 
   94700    299.63587   -16449.155    2093.8706   -12426.957      71.0984    195734.27 
   94800    301.96599   -16490.487    2097.0037   -12450.161    34.379954    194274.21 
   94900    295.29061   -16473.744    2121.9332   -12451.448    74.554325    194396.04 
   95000    299.88649   -16445.628    2103.9103   -12411.777   -79.757536    197014.88 
   95100    299.63878   -16438.032    2101.5661    -12408.12    84.192403    196948.79 
   95200    305.80996   -16472.947    2065.0933   -12439.793    146.37257    194801.04 
   95300    298.46339   -16481.454    2123.1916    -12437.48   -102.05151    195447.79 
   95400    296.91274     -16460.6    2116.4254   -12433.372    59.223441    196682.85 
   95500    301.28866   -16421.851    2070.2413   -12412.646    52.267066    198224.98 
   95600    301.21558   -16454.209    2090.9549   -12424.761    17.030583    197004.56 
   95700    295.88976   -16480.411      2116.97   -12459.222    182.35856    194156.64 
   95800    301.46566   -16471.999    2100.0625   -12431.834    90.114427    195980.95 
   95900    298.78161   -16443.167    2087.4752   -12432.862    98.817257    196539.89 
   96000    306.46365   -16483.367    2053.4481   -12457.651    111.66593    195446.99 
   96100    298.22711   -16479.992    2086.4474   -12474.283    118.93607    194866.36 
   96200    304.59102   -16475.714    2066.9769    -12448.52   -87.229281    196342.86 
   96300    298.59523    -16470.36    2115.4313   -12433.299     72.80553    196722.98 
   96400    305.26457   -16467.552    2072.0432   -12430.958    40.088535     197249.5 
   96500    294.40992   -16455.679    2136.8037    -12424.18    55.929476    198013.38 
   96600      296.181    -16459.14    2108.2862   -12444.761    106.23691     196631.2 
   96700    297.13337   -16459.839    2109.2835   -12438.333    38.372524    196540.95 
   96800    295.52062   -16430.363    2106.6223   -12421.898    133.70573    197626.77 
   96900    302.15801   -16441.811    2081.7699   -12415.483    62.257488    198655.81 
   97000    298.49122   -16435.191    2082.2099   -12432.021    14.190213    198061.45 
   97100    299.98133   -16465.445    2097.0276   -12437.867    34.068029    197301.45 
   97200    297.39335   -16428.924    2093.3098   -12421.719    129.25523    197942.44 
   97300    303.58558   -16460.912    2094.4027   -12412.763    80.695093    197554.11 
   97400    294.23902   -16445.353    2105.9632   -12445.794     92.83827    195552.31 
   97500    300.50913   -16453.317    2083.9378   -12435.432     69.72778    196440.68 
   97600    299.59498   -16454.423    2098.6972   -12427.661    154.36303    197567.09 
   97700    296.60345   -16428.266    2110.9623   -12408.492    34.771524    199033.29 
   97800    296.74952   -16457.466    2103.9309   -12443.783    60.491907    196954.31 
   97900    294.44067   -16472.772    2122.0727   -12455.806    24.620122    195926.96 
   98000    300.28478    -16445.24    2078.4042   -12434.332    83.397279    196632.57 
   98100    301.75181   -16461.454    2099.2275   -12420.282    22.995669    196685.21 
   98200    296.50171   -16452.507    2122.8611   -12421.489     97.33041    195890.48 
   98300    304.45579   -16477.753    2074.7852   -12443.621    1.7957602    194686.26 
   98400    300.68014   -16473.704    2100.2121   -12438.444    34.029974    195580.17 
   98500    295.70915   -16478.394    2145.1735   -12430.164    8.1212883    196205.98 
   98600    299.31252   -16470.994    2130.1667   -12414.581    94.720264    197203.34 
   98700    307.52547   -16465.135    2065.1703   -12420.863   -67.458109     196836.6 
   98800    306.90979   -16478.644    2061.7348    -12441.77    120.11359    195390.31 
   98900    297.00288     -16466.6     2109.317     -12445.9    47.761284    195459.55 
   99000    292.26216   -16427.247    2102.4784   -12443.895     42.69172    196412.06 
   99100     299.3521   -16463.551     2088.679   -12448.371    6.2016662    195995.37 
   99200    294.85605   -16449.959    2107.3126    -12445.08    11.929515    196089.59 
   99300    304.38187     -16429.6    2053.2865   -12417.443    20.615546    197324.59 
   99400    298.97867   -16441.455    2111.6117   -12405.745     48.21186    198009.76 
   99500    300.71525   -16468.744    2116.5656   -12416.905    66.707094    197664.16 
   99600     304.6456   -16461.239    2067.8743   -12432.797     99.86286     197762.8 
   99700    298.30447   -16423.638    2071.4693    -12432.41    103.35119    198040.35 
   99800    292.42705   -16392.722    2108.4473    -12402.34      65.1543     199019.8 
   99900    298.73348   -16398.777    2109.7487   -12366.509   -12.657967     200749.3 
  100000    305.40902   -16412.807    2066.6261     -12380.7     39.59116    199244.62 
  100100    300.70916   -16450.747    2101.8982   -12413.614    84.290662    196974.97 
  100200    300.86012   -16465.095    2092.9353   -12435.953    31.519935    195913.39 
  100300    294.91973   -16429.797    2109.4317   -12422.389    59.666194    197058.65 
  100400    300.94214   -16435.701    2091.2976    -12407.67    58.185196    197695.24 
  100500     298.7337   -16433.144    2106.3622    -12404.26     69.48546    198468.59 
  100600    300.09335   -16422.183    2103.3852   -12387.527   -31.006898    200565.78 
  100700    296.89689   -16428.414    2112.5801   -12405.134    45.069866    199854.67 
  100800    303.69995   -16453.658    2073.2488   -12425.927     20.73317    198296.86 
  100900    299.16713    -16444.43    2095.6108   -12423.509    38.056948    198504.59 
  101000    296.89627   -16455.244    2108.9205   -12435.627    12.604507    197577.93 
  101100    299.44273   -16480.054    2087.8905   -12465.079    138.47336     195420.7 
  101200    299.11092   -16491.514     2075.959   -12490.606    17.232214    193652.27 
  101300    301.12561   -16481.966    2081.4287   -12462.623   -45.286502     194975.6 
  101400    296.88013   -16463.103    2088.6458   -12463.865    12.799805    195151.17 
  101500     299.2251   -16426.786    2075.6126    -12425.49    100.51821     197690.3 
  101600    295.62228   -16364.583    2090.8026   -12371.283    26.506631     200715.1 
  101700    302.60441   -16378.271     2074.627   -12356.212      63.4696    200616.83 
  101800     303.4082   -16416.898    2070.5238    -12393.77   -28.073415    197877.91 
  101900     307.0569   -16466.533    2048.0978   -12442.349     152.2616    195366.71 
  102000    298.86525   -16449.999      2096.16   -12430.471    102.05907     197040.6 
  102100    303.21834   -16452.123    2078.5024   -12422.238    11.172418    197788.55 
  102116    300.80673   -16442.253    2079.8733   -12426.517    17.526953    197541.78 
Loop time of 427.119 on 1 procs for 100000 steps with 2160 atoms

Performance: 20.229 ns/day, 1.186 hours/ns, 234.127 timesteps/s
100.0% CPU use with 1 MPI tasks x no OpenMP threads

MPI task timing breakdown:
Section |  min time  |  avg time  |  max time  |%varavg| %total
---------------------------------------------------------------
Pair    | 134.77     | 134.77     | 134.77     |   0.0 | 31.55
Bond    | 77.868     | 77.868     | 77.868     |   0.0 | 18.23
Kspace  | 131.17     | 131.17     | 131.17     |   0.0 | 30.71
Neigh   | 9.3484     | 9.3484     | 9.3484     |   0.0 |  2.19
Comm    | 2.3566     | 2.3566     | 2.3566     |   0.0 |  0.55
Output  | 0.28564    | 0.28564    | 0.28564    |   0.0 |  0.07
Modify  | 70.25      | 70.25      | 70.25      |   0.0 | 16.45
Other   |            | 1.071      |            |       |  0.25

Nlocal:        2160.00 ave        2160 max        2160 min
Histogram: 1 0 0 0 0 0 0 0 0 0
Nghost:        4375.00 ave        4375 max        4375 min
Histogram: 1 0 0 0 0 0 0 0 0 0
Neighs:        109703.0 ave      109703 max      109703 min
Histogram: 1 0 0 0 0 0 0 0 0 0

Total # of neighbors = 109703
Ave neighs/atom = 50.788426
Ave special neighs/atom = 6.6000000
Neighbor list builds = 2455
Dangerous builds = 0

write_data   system_after_npt.data
System init for write_data ...
PPPM initialization ...
  using 12-bit tables for long-range coulomb (../kspace.cpp:340)
  G vector (1/distance) = 0.2057348
  grid = 18 18 18
  stencil order = 5
  estimated absolute RMS force accuracy = 0.030298784
  estimated relative force accuracy = 9.1243888e-05
  using double precision KISS FFT
  3d grid and FFT values/proc = 12167 5832
Total wall time: 0:07:17
