LAMMPS (31 Aug 2021)
# PREREQUISITES:
#
#     You must use moltemplate.sh to create 3 files:
#        system.data  system.in.init  system.in.settings
#     (Follow the instructions in README_setup.sh,
#      or run the file as a script using ./README_setup.sh)

# ------------------------------- Initialization Section --------------------

include         "system.in.init"
    units real
    atom_style full
    bond_style harmonic
    angle_style harmonic
    dihedral_style opls
    improper_style harmonic
    pair_style lj/cut/coul/long 11.0 11.0
      # (Note to self: The pair_style used by OPLSAA/M (2015) is:
      #                lj/charmm/coul/long 9.0 11.0
      #                ...so this will have to be updated eventually.)
    pair_modify mix geometric
    special_bonds lj/coul 0.0 0.0 0.5
    kspace_style pppm 0.0001

# ------------------------------- Atom Definition Section -------------------

read_data       "system.data"
Reading data file ...
  orthogonal box = (0.0000000 0.0000000 0.0000000) to (48.000000 48.000000 48.000000)
  1 by 1 by 1 MPI processor grid
  reading atoms ...
  136 atoms
  scanning bonds ...
  3 = max bonds/atom
  scanning angles ...
  6 = max angles/atom
  scanning dihedrals ...
  9 = max dihedrals/atom
  reading bonds ...
  128 bonds
  reading angles ...
  168 angles
  reading dihedrals ...
  256 dihedrals
Finding 1-2 1-3 1-4 neighbors ...
  special bond factors lj:    0        0        0.5     
  special bond factors coul:  0        0        0.5     
     4 = max # of 1-2 neighbors
     7 = max # of 1-3 neighbors
    14 = max # of 1-4 neighbors
    15 = max # of special neighbors
  special bonds CPU = 0.000 seconds
  read_data CPU = 0.003 seconds

# OPLSAA atom charges are stored in a separate file.
# Load that file now:

include         "system.in.charges"
    #--------------------- IMPORTANT -----------------------
    # The first 56 atom types (excluding 48,49) are not intended for use in an
    # ordinary (all-atom) simulation.  Instead, these atoms were intended for
    # use with "United Atom" molecules which lack hydrogen atoms.
    # (They belong to the OPLSUA force field, not the OPLSAA force field.)
    #--------------------------------------------------------
    set type 1 charge -0.22  # "Fluoride -CH2-F (UA)"    DON'T USE(OPLSUA)
Setting atom values ...
  0 settings made for charge
    set type 2 charge 0.22  # "Fluoride -CH2-F (UA)"     DON'T USE(OPLSUA)
Setting atom values ...
  0 settings made for charge
    set type 3 charge 0.55  # "Acetic Acid -COOH (UA)"   DON'T USE(OPLSUA)
Setting atom values ...
  0 settings made for charge
    set type 4 charge -0.5  # "Acetic Acid >C=O (UA)"    DON'T USE(OPLSUA)
Setting atom values ...
  0 settings made for charge
    set type 5 charge -0.58  # "Acetic Acid -OH (UA)"    DON'T USE(OPLSUA)
Setting atom values ...
  0 settings made for charge
    set type 6 charge 0.08  # "Acetic Acid CH3- (UA)"    DON'T USE(OPLSUA)
Setting atom values ...
  0 settings made for charge
    set type 7 charge 0.45  # "Acetic Acid -OH (UA)"     DON'T USE(OPLSUA)
Setting atom values ...
  0 settings made for charge
    set type 8 charge 0.0  # "Methane CH4 (UA)"          DON'T USE(OPLSUA)
Setting atom values ...
  0 settings made for charge
    set type 9 charge 0.0  # "Ethane CH3- (UA)"          DON'T USE(OPLSUA)
Setting atom values ...
  0 settings made for charge
    set type 10 charge 0.0  # "N-Alkane CH3- (UA)"       DON'T USE(OPLSUA)
Setting atom values ...
  0 settings made for charge
    set type 11 charge 0.0  # "Isobutane CH3- (UA)"      DON'T USE(OPLSUA)
Setting atom values ...
  0 settings made for charge
    set type 12 charge 0.0  # "Neopentane CH3- (UA)"     DON'T USE(OPLSUA)
Setting atom values ...
  0 settings made for charge
    set type 13 charge 0.0  # "Alkanes -CH2- (UA)"       DON'T USE(OPLSUA)
Setting atom values ...
  0 settings made for charge
    set type 14 charge 0.0  # "1-Alkene CH2= (UA)"       DON'T USE(OPLSUA)
Setting atom values ...
  0 settings made for charge
    set type 15 charge 0.0  # "Isobutane CH (UA)"        DON'T USE(OPLSUA)
Setting atom values ...
  0 settings made for charge
    set type 16 charge 0.0  # "2-Alkene -CH= (UA)"       DON'T USE(OPLSUA)
Setting atom values ...
  0 settings made for charge
    set type 17 charge 0.0  # "Aromatic CH (UA)"         DON'T USE(OPLSUA)
Setting atom values ...
  0 settings made for charge
    set type 18 charge 0.0  # "Neopentane C (UA)"        DON'T USE(OPLSUA)
Setting atom values ...
  0 settings made for charge
    set type 19 charge 0.0  # "Isobutene >C= (UA)"       DON'T USE(OPLSUA)
Setting atom values ...
  0 settings made for charge
    set type 20 charge -0.7  # "Alcohol OH (UA)"         DON'T USE(OPLSUA)
Setting atom values ...
  0 settings made for charge
    set type 21 charge 0.435  # "Alcohol OH (UA)"        DON'T USE(OPLSUA)
Setting atom values ...
  0 settings made for charge
    set type 22 charge 0.265  # "Methanol CH3- (UA)"     DON'T USE(OPLSUA)
Setting atom values ...
  0 settings made for charge
    set type 23 charge 0.265  # "Ethanol -CH2OH (UA)"    DON'T USE(OPLSUA)
Setting atom values ...
  0 settings made for charge
    set type 24 charge -0.47  # "Hydrogen Sulfide H2S"   DON'T USE(OPLSUA)
Setting atom values ...
  0 settings made for charge
    set type 25 charge -0.45  # "Alkyl Sulfide RSH (UA)" DON'T USE(OPLSUA)
Setting atom values ...
  0 settings made for charge
    set type 26 charge -0.47  # "Thioether RSR (UA)"     DON'T USE(OPLSUA)
Setting atom values ...
  0 settings made for charge
    set type 27 charge -0.3  # "Disulfide RSSR (UA)"     DON'T USE(OPLSUA)
Setting atom values ...
  0 settings made for charge
    set type 28 charge 0.235  # "Hydrogen Sulfide H2S"   DON'T USE(OPLSUA)
Setting atom values ...
  0 settings made for charge
    set type 29 charge 0.27  # "Alkyl Sulfide RSH (UA)"  DON'T USE(OPLSUA)
Setting atom values ...
  0 settings made for charge
    set type 30 charge 0.18  # "Methyl Sulfide CH3 (UA)" DON'T USE(OPLSUA)
Setting atom values ...
  0 settings made for charge
    set type 31 charge 0.18  # "Alkyl Sulfide CH2 (UA)"  DON'T USE(OPLSUA)
Setting atom values ...
  0 settings made for charge
    set type 32 charge 0.235  # "Thioether CH3 (UA)"     DON'T USE(OPLSUA)
Setting atom values ...
  0 settings made for charge
    set type 33 charge 0.235  # "Thioether CH2 (UA)"     DON'T USE(OPLSUA)
Setting atom values ...
  0 settings made for charge
    set type 34 charge 0.3  # "Disulfide CH3 (UA)"       DON'T USE(OPLSUA)
Setting atom values ...
  0 settings made for charge
    set type 35 charge 0.3  # "Disulfide CH2 (UA)"       DON'T USE(OPLSUA)
Setting atom values ...
  0 settings made for charge
    set type 36 charge -0.43  # "Acetonitrile -CN (UA)"  DON'T USE(OPLSUA)
Setting atom values ...
  0 settings made for charge
    set type 37 charge 0.28  # "Acetonitrile -CN (UA)"   DON'T USE(OPLSUA)
Setting atom values ...
  0 settings made for charge
    set type 38 charge 0.15  # "Acetonitrile CH3 (UA)"   DON'T USE(OPLSUA)
Setting atom values ...
  0 settings made for charge
    set type 39 charge 0.265  # "Isopropanol >CHOH (UA)" DON'T USE(OPLSUA)
Setting atom values ...
  0 settings made for charge
    set type 40 charge 0.265  # "t-Butanol COH (UA)"     DON'T USE(OPLSUA)
Setting atom values ...
  0 settings made for charge
    set type 41 charge -0.5  # "Ether ROR (UA)"          DON'T USE(OPLSUA)
Setting atom values ...
  0 settings made for charge
    set type 42 charge 0.25  # "Ether CH3-OR (UA)"       DON'T USE(OPLSUA)
Setting atom values ...
  0 settings made for charge
    set type 43 charge 0.25  # "Ether -CH2-OR (UA)"      DON'T USE(OPLSUA)
Setting atom values ...
  0 settings made for charge
    set type 44 charge 0.5  # "Methylene Chloride (UA)"  DON'T USE(OPLSUA)
Setting atom values ...
  0 settings made for charge
    set type 45 charge -0.25  # "Methylene Chloride (UA)"DON'T USE(OPLSUA)
Setting atom values ...
  0 settings made for charge
    set type 46 charge 0.42  # "Chloroform CHCl3 (UA)"   DON'T USE(OPLSUA)
Setting atom values ...
  0 settings made for charge
    set type 47 charge -0.14  # "Chloroform CHCl3 (UA)"  DON'T USE(OPLSUA)
Setting atom values ...
  0 settings made for charge
    set type 48 charge 0.248  # "Carbon Tetrachloride"
Setting atom values ...
  0 settings made for charge
    set type 49 charge -0.062  # "Carbon Tetrachloride"
Setting atom values ...
  0 settings made for charge
    set type 50 charge 0.139  # "DMSO >S=O (UA)"         DON'T USE(OPLSUA)
Setting atom values ...
  0 settings made for charge
    set type 51 charge -0.459  # "DMSO >S=O (UA)"        DON'T USE(OPLSUA)
Setting atom values ...
  0 settings made for charge
    set type 52 charge 0.16  # "DMSO CH3- (UA)"          DON'T USE(OPLSUA)
Setting atom values ...
  0 settings made for charge
    set type 53 charge -0.5  # "DMF C=O (UA)"            DON'T USE(OPLSUA)
Setting atom values ...
  0 settings made for charge
    set type 54 charge -0.57  # "DMF CON< (UA)"          DON'T USE(OPLSUA)
Setting atom values ...
  0 settings made for charge
    set type 55 charge 0.5  # "DMF C=O (UA)"             DON'T USE(OPLSUA)
Setting atom values ...
  0 settings made for charge
    set type 56 charge 0.285  # "DMF CH3- (UA)"          DON'T USE(OPLSUA)
Setting atom values ...
  0 settings made for charge
    #--------------------------------------------------------
    # ORDINARY (OPLSAA) ATOM TYPES BEGIN HERE:
    # Do not use the "UA" atom types above this line in an all-atom simulation.
    #--------------------------------------------------------
    set type 57 charge 0.0  # "Dummy Atom"
Setting atom values ...
  0 settings made for charge
    set type 58 charge 0.0  # "Helium Atom"
Setting atom values ...
  0 settings made for charge
    set type 59 charge 0.0  # "Neon Atom"
Setting atom values ...
  0 settings made for charge
    set type 60 charge 0.0  # "Argon Atom"
Setting atom values ...
  0 settings made for charge
    set type 61 charge 0.0  # "Krypton Atom"
Setting atom values ...
  0 settings made for charge
    set type 62 charge 0.0  # "Xenon Atom"
Setting atom values ...
  0 settings made for charge
    set type 63 charge -0.834  # "TIP3P Water O"
Setting atom values ...
  0 settings made for charge
    set type 64 charge 0.417  # "TIP3P Water H"
Setting atom values ...
  0 settings made for charge
    set type 65 charge 0.0  # "TIP4P Water O"
Setting atom values ...
  0 settings made for charge
    set type 66 charge 0.52  # "TIP4P Water H"
Setting atom values ...
  0 settings made for charge
    set type 67 charge -1.04  # "TIP4P Water M"
Setting atom values ...
  0 settings made for charge
    set type 68 charge -0.822  # "TIP3F Water O"
Setting atom values ...
  0 settings made for charge
    set type 69 charge 0.411  # "TIP3F Water H"
Setting atom values ...
  0 settings made for charge
    set type 70 charge 0.0  # "TIP4F Water O"
Setting atom values ...
  0 settings made for charge
    set type 71 charge 0.511  # "TIP4F Water H"
Setting atom values ...
  0 settings made for charge
    set type 72 charge -1.022  # "TIP4F Water M"
Setting atom values ...
  0 settings made for charge
    set type 73 charge 0.0  # "TIP5P Water O"
Setting atom values ...
  0 settings made for charge
    set type 74 charge 0.241  # "TIP5P Water H"
Setting atom values ...
  0 settings made for charge
    set type 75 charge -0.241  # "TIP5P Water LP"
Setting atom values ...
  0 settings made for charge
    set type 76 charge -0.82  # "SPC Water O"
Setting atom values ...
  0 settings made for charge
    set type 77 charge 0.41  # "SPC Water H"
Setting atom values ...
  0 settings made for charge
    set type 78 charge -1.02  # "Ammonia NH3"
Setting atom values ...
  0 settings made for charge
    set type 79 charge 0.34  # "Ammonia NH3"
Setting atom values ...
  0 settings made for charge
    set type 80 charge -0.18  # "Alkane CH3-"
Setting atom values ...
  0 settings made for charge
    set type 81 charge -0.12  # "Alkane -CH2-"
Setting atom values ...
  0 settings made for charge
    set type 82 charge -0.06  # "Alkane >CH-"
Setting atom values ...
  0 settings made for charge
    set type 83 charge -0.24  # "Methane CH4"
Setting atom values ...
  0 settings made for charge
    set type 84 charge 0.0  # "Alkane >C<"
Setting atom values ...
  0 settings made for charge
    set type 85 charge 0.06  # "Alkane H-C"
Setting atom values ...
  48 settings made for charge
    set type 86 charge 0.0  # "Alkene R2-C="
Setting atom values ...
  0 settings made for charge
    set type 87 charge -0.115  # "Alkene RH-C="
Setting atom values ...
  0 settings made for charge
    set type 88 charge -0.23  # "Alkene H2-C="
Setting atom values ...
  0 settings made for charge
    set type 89 charge 0.115  # "Alkene H-C="
Setting atom values ...
  0 settings made for charge
    set type 90 charge -0.115  # "Aromatic C"
Setting atom values ...
  0 settings made for charge
    set type 91 charge 0.115  # "Aromatic H-C"
Setting atom values ...
  0 settings made for charge
    set type 92 charge 0.0  # "Naphthalene Fusion C"
Setting atom values ...
  0 settings made for charge
    set type 93 charge -0.065  # "Ethyl Benzene CH3-"
Setting atom values ...
  0 settings made for charge
    set type 94 charge -0.005  # "Ethyl Benzene -CH2-"
Setting atom values ...
  0 settings made for charge
    set type 95 charge -0.115  # "Diene =CH-CH="
Setting atom values ...
  0 settings made for charge
    set type 96 charge -0.683  # "Alcohol -OH"
Setting atom values ...
  0 settings made for charge
    set type 97 charge 0.418  # "Alcohol -OH"
Setting atom values ...
  0 settings made for charge
    set type 98 charge 0.04  # "Methanol CH3-"
Setting atom values ...
  0 settings made for charge
    set type 99 charge 0.145  # "Alcohol CH3OH & RCH2OH"
Setting atom values ...
  0 settings made for charge
    set type 100 charge 0.205  # "Alcohol R2CHOH"
Setting atom values ...
  0 settings made for charge
    set type 101 charge 0.265  # "Alcohol R3COH"
Setting atom values ...
  0 settings made for charge
    set type 102 charge 0.1263  # "Trifluoroethanol -CH2-"
Setting atom values ...
  0 settings made for charge
    set type 103 charge 0.5323  # "Trifluoroethanol CF3-"
Setting atom values ...
  0 settings made for charge
    set type 104 charge -0.6351  # "Trifluoroethanol -OH"
Setting atom values ...
  0 settings made for charge
    set type 105 charge 0.4286  # "Trifluoroethanol -OH"
Setting atom values ...
  0 settings made for charge
    set type 106 charge -0.2057  # "Trifluoroethanol F"
Setting atom values ...
  0 settings made for charge
    set type 107 charge 0.0825  # "Trifluoroethanol -CH2-"
Setting atom values ...
  0 settings made for charge
    set type 108 charge 0.15  # "Phenol C-OH"
Setting atom values ...
  0 settings made for charge
    set type 109 charge -0.585  # "Phenol -OH"
Setting atom values ...
  0 settings made for charge
    set type 110 charge 0.435  # "Phenol -OH"
Setting atom values ...
  0 settings made for charge
    set type 111 charge -0.7  # "Diol -OH"
Setting atom values ...
  0 settings made for charge
    set type 112 charge 0.435  # "Diol -OH"
Setting atom values ...
  0 settings made for charge
    set type 113 charge -0.73  # "Triol -OH"
Setting atom values ...
  0 settings made for charge
    set type 114 charge 0.465  # "Triol -OH"
Setting atom values ...
  0 settings made for charge
    set type 115 charge 0.145  # "Diol & Triol -CH2OH"
Setting atom values ...
  0 settings made for charge
    set type 116 charge 0.205  # "Diol & Triol -CHROH"
Setting atom values ...
  0 settings made for charge
    set type 117 charge 0.265  # "Diol & Triol -CR2OH"
Setting atom values ...
  0 settings made for charge
    set type 118 charge 0.06  # "Diol & Triol H-COH"
Setting atom values ...
  0 settings made for charge
    set type 119 charge -0.17  # "Diphenyl Ether"
Setting atom values ...
  0 settings made for charge
    set type 120 charge 0.0  # "Diene =CR-CR="
Setting atom values ...
  0 settings made for charge
    set type 121 charge -0.285  # "Anisole -OCH3"
Setting atom values ...
  0 settings made for charge
    set type 122 charge -0.4  # "Dialkyl Ether -O-"
Setting atom values ...
  0 settings made for charge
    set type 123 charge 0.11  # "Methyl Ether CH3OR"
Setting atom values ...
  0 settings made for charge
    set type 124 charge 0.14  # "Ethyl Ether -CH2OR"
Setting atom values ...
  0 settings made for charge
    set type 125 charge 0.17  # "Isopropyl Ether >CHOR"
Setting atom values ...
  0 settings made for charge
    set type 126 charge 0.2  # "t-Butyl Ether COR"
Setting atom values ...
  0 settings made for charge
    set type 127 charge 0.03  # "Alkyl Ether H-COR"
Setting atom values ...
  0 settings made for charge
    set type 128 charge -0.4  # "Acetal RO-CR2OX"
Setting atom values ...
  0 settings made for charge
    set type 129 charge -0.7  # "Hemiacetal -OH"
Setting atom values ...
  0 settings made for charge
    set type 130 charge 0.435  # "Hemiacetal -OH"
Setting atom values ...
  0 settings made for charge
    set type 131 charge 0.2  # "Acetal RO-CH2-OR"
Setting atom values ...
  0 settings made for charge
    set type 132 charge 0.1  # "Acetal RO-CH2-OR"
Setting atom values ...
  0 settings made for charge
    set type 133 charge 0.265  # "Hemiacetal RO-CH2-OH"
Setting atom values ...
  0 settings made for charge
    set type 134 charge 0.1  # "Hemiacetal RO-CH2-OH"
Setting atom values ...
  0 settings made for charge
    set type 135 charge 0.3  # "Acetal RO-CHR-OR"
Setting atom values ...
  0 settings made for charge
    set type 136 charge 0.1  # "Acetal RO-CHR-OR"
Setting atom values ...
  0 settings made for charge
    set type 137 charge 0.365  # "Hemiacetal RO-CHR-OH"
Setting atom values ...
  0 settings made for charge
    set type 138 charge 0.1  # "Hemiacetal RO-CHR-OH"
Setting atom values ...
  0 settings made for charge
    set type 139 charge 0.4  # "Acetal RO-CR2-OR"
Setting atom values ...
  0 settings made for charge
    set type 140 charge 0.465  # "Hemiacetal RO-CR2-OH"
Setting atom values ...
  0 settings made for charge
    set type 141 charge 0.085  # "Anisole C-OCH3"
Setting atom values ...
  0 settings made for charge
    set type 142 charge -0.335  # "Thiol -SH"
Setting atom values ...
  0 settings made for charge
    set type 143 charge -0.47  # "Hydrogen Sulfide H2S"
Setting atom values ...
  0 settings made for charge
    set type 144 charge -0.435  # "Sulfide -S-"
Setting atom values ...
  0 settings made for charge
    set type 145 charge -0.2175  # "Disulfide -S-S-"
Setting atom values ...
  0 settings made for charge
    set type 146 charge 0.155  # "Thiol -SH"
Setting atom values ...
  0 settings made for charge
    set type 147 charge 0.235  # "Hydrogen Sulfide H2S"
Setting atom values ...
  0 settings made for charge
    set type 148 charge 0.06  # "Thiol -CH2-SH"
Setting atom values ...
  0 settings made for charge
    set type 149 charge 0.12  # "Thiol >CH-SH"
Setting atom values ...
  0 settings made for charge
    set type 150 charge 0.18  # "Thiol C-SH"
Setting atom values ...
  0 settings made for charge
    set type 151 charge 0.0375  # "Methyl Sulfide CH3-SR"
Setting atom values ...
  0 settings made for charge
    set type 152 charge 0.0975  # "Sulfide RCH2-SR"
Setting atom values ...
  0 settings made for charge
    set type 153 charge 0.1575  # "Sulfide R2CH-SR"
Setting atom values ...
  0 settings made for charge
    set type 154 charge 0.2175  # "Sulfide R3C-SR"
Setting atom values ...
  0 settings made for charge
    set type 155 charge 0.0375  # "Disulfide CH3-S-SR"
Setting atom values ...
  0 settings made for charge
    set type 156 charge 0.0975  # "Disulfide RCH2-S-SR"
Setting atom values ...
  0 settings made for charge
    set type 157 charge 0.1575  # "Disulfide R2CH-S-SR"
Setting atom values ...
  0 settings made for charge
    set type 158 charge 0.2175  # "Disulfide R3C-S-SR"
Setting atom values ...
  0 settings made for charge
    set type 159 charge 0.0  # "Methanethiol CH3-SH"
Setting atom values ...
  0 settings made for charge
    set type 160 charge 0.2  # "Benzyl Alcohol -CH2OH"
Setting atom values ...
  0 settings made for charge
    set type 161 charge 0.26  # "Benzyl Alcohol -CHROH"
Setting atom values ...
  0 settings made for charge
    set type 162 charge 0.32  # "Benzyl Alcohol -CR2OH"
Setting atom values ...
  0 settings made for charge
    set type 163 charge -0.055  # "Benzyl Alcohol/Nitrile"
Setting atom values ...
  0 settings made for charge
    set type 164 charge -0.32  # "Thioanisole -SCH3"
Setting atom values ...
  0 settings made for charge
    set type 165 charge 0.08  # "RCH2-NH2 & GLY CA"
Setting atom values ...
  0 settings made for charge
    set type 166 charge 0.14  # "RCHR-NH2 & ALA CA"
Setting atom values ...
  0 settings made for charge
    set type 167 charge 0.2  # "R3C-NH2 & AIB CA"
Setting atom values ...
  0 settings made for charge
    set type 168 charge -0.12  # "Chloroalkene Cl-CH="
Setting atom values ...
  0 settings made for charge
    set type 169 charge 0.005  # "Chloroalkene Cl-CH="
Setting atom values ...
  0 settings made for charge
    set type 170 charge 0.1025  # "Thioanisole C-SCH3"
Setting atom values ...
  0 settings made for charge
    set type 171 charge 0.14  # "Amide -NH-CHR2"
Setting atom values ...
  0 settings made for charge
    set type 172 charge 0.2  # "Amide -NH-CR3"
Setting atom values ...
  0 settings made for charge
    set type 173 charge 0.7  # "Benzophenone C=O"
Setting atom values ...
  0 settings made for charge
    set type 174 charge 0.565  # "Benzaldehyde C=O"
Setting atom values ...
  0 settings made for charge
    set type 175 charge 0.585  # "Acetophenone C=O"
Setting atom values ...
  0 settings made for charge
    set type 176 charge 0.615  # "Benzamide C=O"
Setting atom values ...
  0 settings made for charge
    set type 177 charge 0.5  # "Amide C=O"
Setting atom values ...
  0 settings made for charge
    set type 178 charge -0.5  # "Amide C=O"
Setting atom values ...
  0 settings made for charge
    set type 179 charge -0.76  # "Amide -CO-NH2"
Setting atom values ...
  0 settings made for charge
    set type 180 charge -0.5  # "Amide -CO-NHR"
Setting atom values ...
  0 settings made for charge
    set type 181 charge -0.14  # "Amide -CO-NR2"
Setting atom values ...
  0 settings made for charge
    set type 182 charge 0.38  # "Amide -CO-NH2"
Setting atom values ...
  0 settings made for charge
    set type 183 charge 0.3  # "Amide -CO-NHR"
Setting atom values ...
  0 settings made for charge
    set type 184 charge 0.02  # "Amide -NH-CH3"
Setting atom values ...
  0 settings made for charge
    set type 185 charge -0.11  # "Amide -NR-CH3"
Setting atom values ...
  0 settings made for charge
    set type 186 charge 0.08  # "Amide -NH-CH2R"
Setting atom values ...
  0 settings made for charge
    set type 187 charge -0.05  # "Amide -NR-CH2R & PRO CD"
Setting atom values ...
  0 settings made for charge
    set type 188 charge 0.01  # "Amide -NR-CHR2 & PRO CA"
Setting atom values ...
  0 settings made for charge
    set type 189 charge 0.142  # "Urea C=O"
Setting atom values ...
  0 settings made for charge
    set type 190 charge -0.39  # "Urea C=O"
Setting atom values ...
  0 settings made for charge
    set type 191 charge -0.542  # "Urea -NH2"
Setting atom values ...
  0 settings made for charge
    set type 192 charge 0.333  # "Urea -NH2"
Setting atom values ...
  0 settings made for charge
    set type 193 charge -0.49  # "Imide -NH-"
Setting atom values ...
  0 settings made for charge
    set type 194 charge 0.42  # "Imide C=O"
Setting atom values ...
  0 settings made for charge
    set type 195 charge -0.42  # "Imide C=O"
Setting atom values ...
  0 settings made for charge
    set type 196 charge 0.37  # "Imide -NH-"
Setting atom values ...
  0 settings made for charge
    set type 197 charge 0.06  # "Formimide H-C=O"
Setting atom values ...
  0 settings made for charge
    set type 198 charge -0.12  # "Imide CH3-CONHCO-"
Setting atom values ...
  0 settings made for charge
    set type 199 charge -0.06  # "Imide -CH2-CONHCO-"
Setting atom values ...
  0 settings made for charge
    set type 200 charge 0.0  # "Imide >CH-CONHCO-"
Setting atom values ...
  0 settings made for charge
    set type 201 charge 0.06  # "Imide C-CONHCO-"
Setting atom values ...
  0 settings made for charge
    set type 202 charge 0.035  # "Benzonitrile C-CN"
Setting atom values ...
  0 settings made for charge
    set type 203 charge 0.395  # "Benzonitrile -CN"
Setting atom values ...
  0 settings made for charge
    set type 204 charge -0.43  # "Benzonitrile -CN"
Setting atom values ...
  0 settings made for charge
    set type 205 charge 0.18  # "Chlorobenzene C-Cl"
Setting atom values ...
  0 settings made for charge
    set type 206 charge -0.18  # "Chlorobenzene C-Cl"
Setting atom values ...
  0 settings made for charge
    set type 207 charge -0.385  # "N-Phenylacetamide N"
Setting atom values ...
  0 settings made for charge
    set type 208 charge 0.085  # "N-Phenylacetamide N-CA"
Setting atom values ...
  0 settings made for charge
    set type 209 charge 0.52  # "Carboxylic Acid -COOH"
Setting atom values ...
  0 settings made for charge
    set type 210 charge -0.44  # "Carboxylic Acid C=O"
Setting atom values ...
  0 settings made for charge
    set type 211 charge -0.53  # "Carboxylic Acid -OH"
Setting atom values ...
  0 settings made for charge
    set type 212 charge 0.45  # "Carboxylic Acid -COOH"
Setting atom values ...
  0 settings made for charge
    set type 213 charge 0.7  # "Carboxylate COO-"
Setting atom values ...
  0 settings made for charge
    set type 214 charge -0.8  # "Carboxylate COO-"
Setting atom values ...
  0 settings made for charge
    set type 215 charge -0.28  # "Carboxylate CH3-COO-"
Setting atom values ...
  0 settings made for charge
    set type 216 charge -0.22  # "Carboxylate RCH2-COO-"
Setting atom values ...
  0 settings made for charge
    set type 217 charge -0.16  # "Carboxylate R2CH-COO-"
Setting atom values ...
  0 settings made for charge
    set type 218 charge -0.1  # "Carboxylate R3C-COO-"
Setting atom values ...
  0 settings made for charge
    set type 219 charge 0.45  # "Aldehyde/Acyl Halide C=O"
Setting atom values ...
  0 settings made for charge
    set type 220 charge -0.45  # "Aldehyde/Acyl Halide C=O"
Setting atom values ...
  0 settings made for charge
    set type 221 charge 0.0  # "Aldehyde/Formamide H-C=O"
Setting atom values ...
  0 settings made for charge
    set type 222 charge 0.47  # "Ketone C=O"
Setting atom values ...
  0 settings made for charge
    set type 223 charge -0.47  # "Ketone C=O"
Setting atom values ...
  0 settings made for charge
    set type 224 charge 0.06  # "Acyl H-C-COX"
Setting atom values ...
  0 settings made for charge
    set type 225 charge 0.04  # "C-Terminal ALA CA"
Setting atom values ...
  0 settings made for charge
    set type 226 charge -0.02  # "C-Terminal GLY CA"
Setting atom values ...
  0 settings made for charge
    set type 227 charge 0.1  # "C-Terminal AIB CA"
Setting atom values ...
  0 settings made for charge
    set type 228 charge -0.09  # "C-Terminal PRO CA"
Setting atom values ...
  0 settings made for charge
    set type 229 charge -0.4  # "Ammonium NH4+"
Setting atom values ...
  0 settings made for charge
    set type 230 charge -0.3  # "Ammonium RNH3+"
Setting atom values ...
  0 settings made for charge
    set type 231 charge 0.0  # "Ammonium R4N+"
Setting atom values ...
  0 settings made for charge
    set type 232 charge 0.35  # "Ammonium NH4+"
Setting atom values ...
  0 settings made for charge
    set type 233 charge 0.33  # "Ammonium RNH3+"
Setting atom values ...
  0 settings made for charge
    set type 234 charge 0.13  # "Ammonium CH3-NH3+"
Setting atom values ...
  0 settings made for charge
    set type 235 charge 0.19  # "CH3NH3+/N-Term GLY CA"
Setting atom values ...
  0 settings made for charge
    set type 236 charge 0.25  # "RCH2NH3+/N-Term ALA CA"
Setting atom values ...
  0 settings made for charge
    set type 237 charge 0.31  # "R3C-NH3+/N-Term AIB CA"
Setting atom values ...
  0 settings made for charge
    set type 238 charge 0.23  # "N-Terminal PRO CA"
Setting atom values ...
  0 settings made for charge
    set type 239 charge 0.17  # "N-Terminal PRO CD"
Setting atom values ...
  0 settings made for charge
    set type 240 charge 0.11  # "Ammonium CH3-NH2R+"
Setting atom values ...
  0 settings made for charge
    set type 241 charge 0.09  # "GLY Zwitterion CA"
Setting atom values ...
  0 settings made for charge
    set type 242 charge 0.15  # "ALA Zwitterion CA"
Setting atom values ...
  0 settings made for charge
    set type 243 charge -0.8  # "Guanidinium -NH2"
Setting atom values ...
  0 settings made for charge
    set type 244 charge 0.46  # "Guanidinium -NH2"
Setting atom values ...
  0 settings made for charge
    set type 245 charge 0.64  # "Guanidinium C+"
Setting atom values ...
  0 settings made for charge
    set type 246 charge -0.7  # "Guanidinium -NHR"
Setting atom values ...
  0 settings made for charge
    set type 247 charge 0.44  # "Guanidinium -NHR"
Setting atom values ...
  0 settings made for charge
    set type 248 charge 0.2  # "Me Guanidinium CH3-"
Setting atom values ...
  0 settings made for charge
    set type 249 charge -0.11  # "Et Guanidinium CH3-"
Setting atom values ...
  0 settings made for charge
    set type 250 charge 0.19  # "Et Guan -CH2- & ARG CD"
Setting atom values ...
  0 settings made for charge
    set type 251 charge -0.05  # "Pr Guan -CH2- & ARG CG"
Setting atom values ...
  0 settings made for charge
    set type 252 charge -0.2  # "Ammonium R2NH2+"
Setting atom values ...
  0 settings made for charge
    set type 253 charge 0.31  # "Ammonium R2NH2+"
Setting atom values ...
  0 settings made for charge
    set type 254 charge -0.46  # "Diaminopyridine N1"
Setting atom values ...
  0 settings made for charge
    set type 255 charge 0.36  # "Diaminopyridine C2"
Setting atom values ...
  0 settings made for charge
    set type 256 charge -0.85  # "Diaminopyridine -NH2"
Setting atom values ...
  0 settings made for charge
    set type 257 charge 0.37  # "Diaminopyridine -NH2"
Setting atom values ...
  0 settings made for charge
    set type 258 charge -0.15  # "Diaminopyridine C3"
Setting atom values ...
  0 settings made for charge
    set type 259 charge 0.1  # "Diaminopyridine H3"
Setting atom values ...
  0 settings made for charge
    set type 260 charge -0.04  # "Diaminopyridine C4"
Setting atom values ...
  0 settings made for charge
    set type 261 charge 0.1  # "Diaminopyridine H4"
Setting atom values ...
  0 settings made for charge
    set type 262 charge -0.6  # "Uracil & Thymine N1"
Setting atom values ...
  0 settings made for charge
    set type 263 charge 0.5  # "Uracil & Thymine C2"
Setting atom values ...
  0 settings made for charge
    set type 264 charge -0.51  # "Uracil & Thymine N3"
Setting atom values ...
  0 settings made for charge
    set type 265 charge 0.45  # "Uracil & Thymine C4"
Setting atom values ...
  0 settings made for charge
    set type 266 charge -0.07  # "Uracil & Thymine C5"
Setting atom values ...
  0 settings made for charge
    set type 267 charge 0.08  # "Uracil & Thymine C6"
Setting atom values ...
  0 settings made for charge
    set type 268 charge 0.41  # "Uracil & Thymine HN1"
Setting atom values ...
  0 settings made for charge
    set type 269 charge -0.4  # "Uracil & Thymine O2"
Setting atom values ...
  0 settings made for charge
    set type 270 charge 0.36  # "Uracil & Thymine HN3"
Setting atom values ...
  0 settings made for charge
    set type 271 charge -0.42  # "Uracil & Thymine O4"
Setting atom values ...
  0 settings made for charge
    set type 272 charge 0.1  # "Uracil & Thymine HC5"
Setting atom values ...
  0 settings made for charge
    set type 273 charge 0.1  # "Uracil & Thymine HC6"
Setting atom values ...
  0 settings made for charge
    set type 274 charge -0.14  # "Thymine CH3-"
Setting atom values ...
  0 settings made for charge
    set type 275 charge 0.08  # "Thymine CH3-"
Setting atom values ...
  0 settings made for charge
    set type 276 charge -0.56  # "Cytosine N1"
Setting atom values ...
  0 settings made for charge
    set type 277 charge 0.55  # "Cytosine C2"
Setting atom values ...
  0 settings made for charge
    set type 278 charge -0.54  # "Cytosine N3"
Setting atom values ...
  0 settings made for charge
    set type 279 charge 0.46  # "Cytosine C4"
Setting atom values ...
  0 settings made for charge
    set type 280 charge -0.06  # "Cytosine C5"
Setting atom values ...
  0 settings made for charge
    set type 281 charge 0.1  # "Cytosine C6"
Setting atom values ...
  0 settings made for charge
    set type 282 charge 0.38  # "Cytosine HN1"
Setting atom values ...
  0 settings made for charge
    set type 283 charge -0.48  # "Cytosine O2"
Setting atom values ...
  0 settings made for charge
    set type 284 charge -0.79  # "Cytosine NH2-"
Setting atom values ...
  0 settings made for charge
    set type 285 charge 0.385  # "Cytosine NH2- (N3)"
Setting atom values ...
  0 settings made for charge
    set type 286 charge 0.355  # "Cytosine NH2- (C5)"
Setting atom values ...
  0 settings made for charge
    set type 287 charge 0.1  # "Cytosine HC5"
Setting atom values ...
  0 settings made for charge
    set type 288 charge 0.1  # "Cytosine HC6"
Setting atom values ...
  0 settings made for charge
    set type 289 charge -0.53  # "Adenine N1"
Setting atom values ...
  0 settings made for charge
    set type 290 charge 0.22  # "Adenine C2"
Setting atom values ...
  0 settings made for charge
    set type 291 charge -0.55  # "Adenine N3"
Setting atom values ...
  0 settings made for charge
    set type 292 charge 0.38  # "Adenine C4"
Setting atom values ...
  0 settings made for charge
    set type 293 charge 0.15  # "Adenine C5"
Setting atom values ...
  0 settings made for charge
    set type 294 charge 0.44  # "Adenine C6"
Setting atom values ...
  0 settings made for charge
    set type 295 charge -0.49  # "Adenine & Guanine N7"
Setting atom values ...
  0 settings made for charge
    set type 296 charge 0.2  # "Adenine & Guanine C8"
Setting atom values ...
  0 settings made for charge
    set type 297 charge -0.5  # "Adenine & Guanine N9"
Setting atom values ...
  0 settings made for charge
    set type 298 charge 0.2  # "Adenine HC2"
Setting atom values ...
  0 settings made for charge
    set type 299 charge -0.81  # "Adenine NH2-"
Setting atom values ...
  0 settings made for charge
    set type 300 charge 0.385  # "Adenine NH2- (N1)"
Setting atom values ...
  0 settings made for charge
    set type 301 charge 0.355  # "Adenine NH2- (C5)"
Setting atom values ...
  0 settings made for charge
    set type 302 charge 0.2  # "Adenine & Guanine HC8"
Setting atom values ...
  0 settings made for charge
    set type 303 charge 0.35  # "Adenine & Guanine HN9"
Setting atom values ...
  0 settings made for charge
    set type 304 charge -0.56  # "Guanine N1"
Setting atom values ...
  0 settings made for charge
    set type 305 charge 0.46  # "Guanine C2"
Setting atom values ...
  0 settings made for charge
    set type 306 charge -0.51  # "Guanine N3"
Setting atom values ...
  0 settings made for charge
    set type 307 charge 0.34  # "Guanine C4"
Setting atom values ...
  0 settings made for charge
    set type 308 charge 0.12  # "Guanine C5"
Setting atom values ...
  0 settings made for charge
    set type 309 charge 0.52  # "Guanine C6"
Setting atom values ...
  0 settings made for charge
    set type 310 charge 0.38  # "Guanine HN1"
Setting atom values ...
  0 settings made for charge
    set type 311 charge -0.8  # "Guanine NH2-"
Setting atom values ...
  0 settings made for charge
    set type 312 charge 0.4  # "Guanine NH2-"
Setting atom values ...
  0 settings made for charge
    set type 313 charge -0.51  # "Guanine O6"
Setting atom values ...
  0 settings made for charge
    set type 314 charge -0.01  # "9-Me A & 9-Me-G CH3-"
Setting atom values ...
  0 settings made for charge
    set type 315 charge 0.12  # "9-Me-A & 9-Me-G CH3-"
Setting atom values ...
  0 settings made for charge
    set type 316 charge -0.01  # "1-Me-U & 1-Me-T CH3-"
Setting atom values ...
  0 settings made for charge
    set type 317 charge 0.14  # "1-Me-U & 1-Me-T CH3-"
Setting atom values ...
  0 settings made for charge
    set type 318 charge -0.01  # "1-Me-Cytosine CH3-"
Setting atom values ...
  0 settings made for charge
    set type 319 charge 0.13  # "1-Me-Cytosine CH3-"
Setting atom values ...
  0 settings made for charge
    set type 320 charge -0.64  # "CytosineH+ N1"
Setting atom values ...
  0 settings made for charge
    set type 321 charge 0.65  # "CytosineH+ C2"
Setting atom values ...
  0 settings made for charge
    set type 322 charge -0.74  # "CytosineH+ N3"
Setting atom values ...
  0 settings made for charge
    set type 323 charge 0.66  # "CytosineH+ C4"
Setting atom values ...
  0 settings made for charge
    set type 324 charge -0.06  # "CytosineH+ C5"
Setting atom values ...
  0 settings made for charge
    set type 325 charge 0.1  # "CytosineH+ C6"
Setting atom values ...
  0 settings made for charge
    set type 326 charge 0.49  # "CytosineH+ HN1"
Setting atom values ...
  0 settings made for charge
    set type 327 charge -0.3  # "CytosineH+ O2"
Setting atom values ...
  0 settings made for charge
    set type 328 charge 0.48  # "CytosineH+ HN3"
Setting atom values ...
  0 settings made for charge
    set type 329 charge -0.81  # "CytosineH+ NH2-"
Setting atom values ...
  0 settings made for charge
    set type 330 charge 0.46  # "CytosineH+ NH2- (N3)"
Setting atom values ...
  0 settings made for charge
    set type 331 charge 0.43  # "CytosineH+ NH2- (C5)"
Setting atom values ...
  0 settings made for charge
    set type 332 charge 0.14  # "CytosineH+ HC5"
Setting atom values ...
  0 settings made for charge
    set type 333 charge 0.14  # "CytosineH+ HC6"
Setting atom values ...
  0 settings made for charge
    set type 334 charge 0.01  # "1-Me-CytosineH+ CH3-"
Setting atom values ...
  0 settings made for charge
    set type 335 charge 0.16  # "1-Me-CytosineH+ CH3-"
Setting atom values ...
  0 settings made for charge
    set type 336 charge 0.78  # "DiMePhosphate P (UA)"
Setting atom values ...
  0 settings made for charge
    set type 337 charge -0.66  # "DiMePhosphate O=P-O (UA)"
Setting atom values ...
  0 settings made for charge
    set type 338 charge -0.43  # "DiMePhosphate CH3-O (UA)"
Setting atom values ...
  0 settings made for charge
    set type 339 charge 0.2  # "DiMePhosphate CH3-O (UA)"
Setting atom values ...
  0 settings made for charge
    set type 340 charge 0.18  # "Trifluorothymine CF3-"
Setting atom values ...
  0 settings made for charge
    set type 341 charge -0.06  # "Chloroalkene Cl2-C="
Setting atom values ...
  0 settings made for charge
    set type 342 charge 0.12  # "Chloroalkene Cl2-C="
Setting atom values ...
  0 settings made for charge
    set type 343 charge -1.0  # "Fluoride Ion F-"
Setting atom values ...
  0 settings made for charge
    set type 344 charge -1.0  # "Chloride Ion Cl-"
Setting atom values ...
  0 settings made for charge
    set type 345 charge -1.0  # "Bromide Ion Br-"
Setting atom values ...
  0 settings made for charge
    set type 346 charge -1.0  # "Iodide Ion I-"
Setting atom values ...
  0 settings made for charge
    set type 347 charge 1.0  # "Ammonium Ion NH4+ (UA)"
Setting atom values ...
  0 settings made for charge
    set type 348 charge 1.0  # "Lithium Ion Li+"
Setting atom values ...
  0 settings made for charge
    set type 349 charge 1.0  # "Sodium Ion Na+"
Setting atom values ...
  0 settings made for charge
    set type 350 charge 1.0  # "Potassium Ion K+"
Setting atom values ...
  0 settings made for charge
    set type 351 charge 1.0  # "Rubidium Ion Rb+"
Setting atom values ...
  0 settings made for charge
    set type 352 charge 1.0  # "Cesium Ion Cs+"
Setting atom values ...
  0 settings made for charge
    set type 353 charge 2.0  # "Magnesium Ion Mg+2"
Setting atom values ...
  0 settings made for charge
    set type 354 charge 2.0  # "Calcium Ion Ca+2"
Setting atom values ...
  0 settings made for charge
    set type 355 charge 2.0  # "Strontium Ion Sr+2"
Setting atom values ...
  0 settings made for charge
    set type 356 charge 2.0  # "Barium Ion Ba+2"
Setting atom values ...
  0 settings made for charge
    set type 357 charge -0.4  # "Methyl Thiolate CH3S-"
Setting atom values ...
  0 settings made for charge
    set type 358 charge 0.1  # "Methyl Thiolate CH3S-"
Setting atom values ...
  0 settings made for charge
    set type 359 charge -0.9  # "Methyl Thiolate CH3S-"
Setting atom values ...
  0 settings made for charge
    set type 360 charge -0.2  # "Methoxide CH3O-"
Setting atom values ...
  0 settings made for charge
    set type 361 charge 0.06  # "Methoxide CH3O-"
Setting atom values ...
  0 settings made for charge
    set type 362 charge -0.98  # "Methoxide CH3O-"
Setting atom values ...
  0 settings made for charge
    set type 363 charge -1.07  # "Nitrile Anion CNCH2-"
Setting atom values ...
  0 settings made for charge
    set type 364 charge 0.19  # "Nitrile Anion CNCH2-"
Setting atom values ...
  0 settings made for charge
    set type 365 charge 0.51  # "Nitrile Anion CNCH2-"
Setting atom values ...
  0 settings made for charge
    set type 366 charge -0.82  # "Nitrile Anion CNCH2-"
Setting atom values ...
  0 settings made for charge
    set type 367 charge -0.3  # "Me Amine Anion CH3NH-"
Setting atom values ...
  0 settings made for charge
    set type 368 charge 0.07  # "Me Amine Anion CH3NH-"
Setting atom values ...
  0 settings made for charge
    set type 369 charge -1.31  # "Me Amine Anion CH3NH-"
Setting atom values ...
  0 settings made for charge
    set type 370 charge 0.4  # "Methyl Amine Anion"
Setting atom values ...
  0 settings made for charge
    set type 371 charge -0.4  # "Ethyl Anion CH3-CH2-"
Setting atom values ...
  0 settings made for charge
    set type 372 charge 0.08  # "Ethyl Anion CH3-CH2-"
Setting atom values ...
  0 settings made for charge
    set type 373 charge 0.0  # "Ethyl Anion CH3-CH2-"
Setting atom values ...
  0 settings made for charge
    set type 374 charge 0.07  # "Ethyl Anion CH3-CH2-"
Setting atom values ...
  0 settings made for charge
    set type 375 charge -0.98  # "Ethyl Anion CH3-CH2-"
Setting atom values ...
  0 settings made for charge
    set type 376 charge -1.3  # "Hydroxide Ion OH-"
Setting atom values ...
  0 settings made for charge
    set type 377 charge 0.3  # "Hydroxide Ion OH-"
Setting atom values ...
  0 settings made for charge
    set type 378 charge 2.5  # "Uranyl Ion UO2+"
Setting atom values ...
  0 settings made for charge
    set type 379 charge -0.25  # "Uranyl Ion UO2+"
Setting atom values ...
  0 settings made for charge
    set type 380 charge -0.865  # "GTP O-(POn)2"
Setting atom values ...
  0 settings made for charge
    set type 381 charge 1.62  # "DiMe Phosphate P"
Setting atom values ...
  0 settings made for charge
    set type 382 charge -0.92  # "DiMe Phosphate O=P-O"
Setting atom values ...
  0 settings made for charge
    set type 383 charge -0.6  # "DiMe Phosphate CH3-O"
Setting atom values ...
  0 settings made for charge
    set type 384 charge 0.3  # "DiMe Phosphate CH3-O"
Setting atom values ...
  0 settings made for charge
    set type 385 charge -0.03  # "DiMe Phosphate CH3-O"
Setting atom values ...
  0 settings made for charge
    set type 386 charge 1.92  # "Me Phosphate P"
Setting atom values ...
  0 settings made for charge
    set type 387 charge -1.12  # "Me Phosphate O=PO2"
Setting atom values ...
  0 settings made for charge
    set type 388 charge -0.7  # "Me Phosphate CH3-O"
Setting atom values ...
  0 settings made for charge
    set type 389 charge 0.44  # "Me Phosphate CH3-O"
Setting atom values ...
  0 settings made for charge
    set type 390 charge -0.1  # "Me Phosphate CH3-O"
Setting atom values ...
  0 settings made for charge
    set type 391 charge 1.62  # "Me MePhosphonate P"
Setting atom values ...
  0 settings made for charge
    set type 392 charge -0.97  # "Me MePhosphonate O=P-O"
Setting atom values ...
  0 settings made for charge
    set type 393 charge -0.63  # "Me MePhosphonate CH3-O"
Setting atom values ...
  0 settings made for charge
    set type 394 charge 0.28  # "Me MePhosphonate CH3-O"
Setting atom values ...
  0 settings made for charge
    set type 395 charge -0.02  # "Me MePhosphonate CH3-O"
Setting atom values ...
  0 settings made for charge
    set type 396 charge -0.51  # "Me MePhosphonate CH3-P"
Setting atom values ...
  0 settings made for charge
    set type 397 charge 0.08  # "Me MePhosphonate CH3-P"
Setting atom values ...
  0 settings made for charge
    set type 398 charge -0.14  # "Bz MePhosphonate Cipso"
Setting atom values ...
  0 settings made for charge
    set type 399 charge 0.32  # "Bz MePhosphonate CH3-O"
Setting atom values ...
  0 settings made for charge
    set type 400 charge 0.02  # "Bz MePhosphonate CH3-O"
Setting atom values ...
  0 settings made for charge
    set type 401 charge -0.04  # "Me BzPhosphonate Cipso"
Setting atom values ...
  0 settings made for charge
    set type 402 charge -0.47  # "Me BzPhosphonate CH3-P"
Setting atom values ...
  0 settings made for charge
    set type 403 charge 0.12  # "Me BzPhosphonate CH3-P"
Setting atom values ...
  0 settings made for charge
    set type 404 charge 0.14  # "Ph Phosphate Cipso"
Setting atom values ...
  0 settings made for charge
    set type 405 charge 0.24  # "Barbiturate C6(R2)"
Setting atom values ...
  0 settings made for charge
    set type 406 charge 0.51  # "Ester -COOR"
Setting atom values ...
  0 settings made for charge
    set type 407 charge -0.43  # "Ester C=O"
Setting atom values ...
  0 settings made for charge
    set type 408 charge -0.33  # "Ester CO-O-R"
Setting atom values ...
  0 settings made for charge
    set type 409 charge 0.16  # "Methyl Ester -OCH3"
Setting atom values ...
  0 settings made for charge
    set type 410 charge 0.03  # "Ester -OCH<"
Setting atom values ...
  0 settings made for charge
    set type 411 charge 0.635  # "Benzoic Acid -COOH"
Setting atom values ...
  0 settings made for charge
    set type 412 charge 0.625  # "Aryl Ester -COOR"
Setting atom values ...
  0 settings made for charge
    set type 413 charge 0.135  # "Phenyl Ester Cipso"
Setting atom values ...
  0 settings made for charge
    set type 414 charge -0.215  # "Phenyl Ester -OPh"
Setting atom values ...
  0 settings made for charge
    set type 415 charge 1.48  # "Sulfonamide -SO2N<"
Setting atom values ...
  0 settings made for charge
    set type 416 charge -0.68  # "Sulfonamide -SO2N<"
Setting atom values ...
  0 settings made for charge
    set type 417 charge -0.54  # "Sulfonamide CH3-S"
Setting atom values ...
  0 settings made for charge
    set type 418 charge 0.18  # "Sulfonamide CH3-S"
Setting atom values ...
  0 settings made for charge
    set type 419 charge -1.0  # "Sulfonamide -SO2NH2"
Setting atom values ...
  0 settings made for charge
    set type 420 charge 0.44  # "Sulfonamide -SO2NH2"
Setting atom values ...
  0 settings made for charge
    set type 421 charge -0.8  # "Sulfonamide -SO2NHR"
Setting atom values ...
  0 settings made for charge
    set type 422 charge 0.41  # "Sulfonamide -SO2NHR"
Setting atom values ...
  0 settings made for charge
    set type 423 charge 0.18  # "N-Me Sulfonamide CH3-"
Setting atom values ...
  0 settings made for charge
    set type 424 charge 0.03  # "N-Me Sulfonamide CH3-"
Setting atom values ...
  0 settings made for charge
    set type 425 charge 0.39  # "Sulfonamide N-CH2-R"
Setting atom values ...
  0 settings made for charge
    set type 426 charge -0.06  # "Sulfonamide N-CH2-R"
Setting atom values ...
  0 settings made for charge
    set type 427 charge -0.18  # "N-Et Sulfonamide CH3-"
Setting atom values ...
  0 settings made for charge
    set type 428 charge 0.06  # "N-Et Sulfonamide CH3-"
Setting atom values ...
  0 settings made for charge
    set type 429 charge 0.0  # "Aryl Sulfonamide C-SO2N"
Setting atom values ...
  0 settings made for charge
    set type 430 charge 0.03  # "Aryl Sulfoxide C-S=O"
Setting atom values ...
  0 settings made for charge
    set type 431 charge 0.19  # "Et Ester -OCH2R"
Setting atom values ...
  0 settings made for charge
    set type 432 charge 0.22  # "i-Pr Ester -OCHR2"
Setting atom values ...
  0 settings made for charge
    set type 433 charge 0.25  # "t-Bu Ester -OCR3"
Setting atom values ...
  0 settings made for charge
    set type 434 charge 1.374  # "Sulfone R-SO2-R"
Setting atom values ...
  0 settings made for charge
    set type 435 charge -0.687  # "Sulfone R-SO2-R"
Setting atom values ...
  0 settings made for charge
    set type 436 charge 0.245  # "Alkyl Aryl Sulfoxide"
Setting atom values ...
  0 settings made for charge
    set type 437 charge 0.13  # "Dialkyl Sulfoxide"
Setting atom values ...
  0 settings made for charge
    set type 438 charge -0.42  # "Sulfoxide R-SO-R"
Setting atom values ...
  0 settings made for charge
    set type 439 charge -0.035  # "Sulfoxide CH3-SO-R"
Setting atom values ...
  0 settings made for charge
    set type 440 charge 0.025  # "Sulfoxide -CH2-SO-R"
Setting atom values ...
  0 settings made for charge
    set type 441 charge 0.075  # "TRP CG"
Setting atom values ...
  0 settings made for charge
    set type 442 charge -0.055  # "TRP CD"
Setting atom values ...
  0 settings made for charge
    set type 443 charge 0.13  # "TRP CE"
Setting atom values ...
  0 settings made for charge
    set type 444 charge -0.57  # "TRP NE, HID ND & HIE NE"
Setting atom values ...
  0 settings made for charge
    set type 445 charge 0.42  # "TRP HNE & HID/HIE HN"
Setting atom values ...
  0 settings made for charge
    set type 446 charge -0.005  # "HIS CB"
Setting atom values ...
  0 settings made for charge
    set type 447 charge 0.295  # "HID & HIE CE1"
Setting atom values ...
  0 settings made for charge
    set type 448 charge -0.015  # "HID CD2 & HIE CG"
Setting atom values ...
  0 settings made for charge
    set type 449 charge 0.015  # "HID CG & HIE CD2"
Setting atom values ...
  0 settings made for charge
    set type 450 charge 0.385  # "HIP CE1"
Setting atom values ...
  0 settings made for charge
    set type 451 charge 0.215  # "HIP CG & CD2"
Setting atom values ...
  0 settings made for charge
    set type 452 charge -0.49  # "HID NE & HIE ND"
Setting atom values ...
  0 settings made for charge
    set type 453 charge -0.54  # "HIP ND & NE"
Setting atom values ...
  0 settings made for charge
    set type 454 charge 0.46  # "HIP HND & HNE"
Setting atom values ...
  0 settings made for charge
    set type 455 charge -0.115  # "TRP CD1"
Setting atom values ...
  0 settings made for charge
    set type 456 charge 0.055  # "i-Pr Benzene -CHMe2"
Setting atom values ...
  0 settings made for charge
    set type 457 charge 0.115  # "t-Bu Benzene -CMe3"
Setting atom values ...
  0 settings made for charge
    set type 458 charge -0.03  # "Vinyl Ether =CH-OR"
Setting atom values ...
  0 settings made for charge
    set type 459 charge 0.085  # "Vinyl Ether =CR-OR"
Setting atom values ...
  0 settings made for charge
    set type 460 charge 0.0  # "Biphenyl C1"
Setting atom values ...
  0 settings made for charge
    set type 461 charge -0.678  # "Pyridine N"
Setting atom values ...
  0 settings made for charge
    set type 462 charge 0.473  # "Pyridine C1"
Setting atom values ...
  0 settings made for charge
    set type 463 charge -0.447  # "Pyridine C2"
Setting atom values ...
  0 settings made for charge
    set type 464 charge 0.227  # "Pyridine C3"
Setting atom values ...
  0 settings made for charge
    set type 465 charge 0.012  # "Pyridine H1"
Setting atom values ...
  0 settings made for charge
    set type 466 charge 0.155  # "Pyridine H2"
Setting atom values ...
  0 settings made for charge
    set type 467 charge 0.065  # "Pyridine H3"
Setting atom values ...
  0 settings made for charge
    set type 468 charge -0.468  # "Pyrazine N"
Setting atom values ...
  0 settings made for charge
    set type 469 charge 0.192  # "Pyrazine CH"
Setting atom values ...
  0 settings made for charge
    set type 470 charge 0.042  # "Pyrazine CH"
Setting atom values ...
  0 settings made for charge
    set type 471 charge -0.839  # "Pyrimidine N"
Setting atom values ...
  0 settings made for charge
    set type 472 charge 0.874  # "Pyrimidine C2"
Setting atom values ...
  0 settings made for charge
    set type 473 charge 0.653  # "Pyrimidine C4"
Setting atom values ...
  0 settings made for charge
    set type 474 charge -0.689  # "Pyrimidine C5"
Setting atom values ...
  0 settings made for charge
    set type 475 charge -0.032  # "Pyrimidine HC2"
Setting atom values ...
  0 settings made for charge
    set type 476 charge 0.011  # "Pyrimidine HC4"
Setting atom values ...
  0 settings made for charge
    set type 477 charge 0.197  # "Pyrimidine HC5"
Setting atom values ...
  0 settings made for charge
    set type 478 charge -0.331  # "Pyridazine N"
Setting atom values ...
  0 settings made for charge
    set type 479 charge 0.378  # "Pyridazine C3"
Setting atom values ...
  0 settings made for charge
    set type 480 charge -0.16  # "Pyridazine C4"
Setting atom values ...
  0 settings made for charge
    set type 481 charge -0.009  # "Pyridazine HC3"
Setting atom values ...
  0 settings made for charge
    set type 482 charge 0.122  # "Pyridazine HC4"
Setting atom values ...
  0 settings made for charge
    set type 483 charge -0.239  # "Pyrrole N"
Setting atom values ...
  0 settings made for charge
    set type 484 charge -0.163  # "Pyrrole C2"
Setting atom values ...
  0 settings made for charge
    set type 485 charge -0.149  # "Pyrrole C3"
Setting atom values ...
  0 settings made for charge
    set type 486 charge 0.317  # "Pyrrole HN"
Setting atom values ...
  0 settings made for charge
    set type 487 charge 0.155  # "Pyrrole HC2"
Setting atom values ...
  0 settings made for charge
    set type 488 charge 0.118  # "Pyrrole HC3"
Setting atom values ...
  0 settings made for charge
    set type 489 charge -0.059  # "Pyrazole N1"
Setting atom values ...
  0 settings made for charge
    set type 490 charge -0.491  # "Pyrazole N2"
Setting atom values ...
  0 settings made for charge
    set type 491 charge 0.246  # "Pyrazole C3"
Setting atom values ...
  0 settings made for charge
    set type 492 charge -0.32  # "Pyrazole C4"
Setting atom values ...
  0 settings made for charge
    set type 493 charge -0.034  # "Pyrazole C5"
Setting atom values ...
  0 settings made for charge
    set type 494 charge 0.301  # "Pyrazole HN1"
Setting atom values ...
  0 settings made for charge
    set type 495 charge 0.072  # "Pyrazole HC3"
Setting atom values ...
  0 settings made for charge
    set type 496 charge 0.15  # "Pyrazole HC4"
Setting atom values ...
  0 settings made for charge
    set type 497 charge 0.135  # "Pyrazole HC5"
Setting atom values ...
  0 settings made for charge
    set type 498 charge -0.257  # "Imidazole N1"
Setting atom values ...
  16 settings made for charge
    set type 499 charge 0.275  # "Imidazole C2"
Setting atom values ...
  8 settings made for charge
    set type 500 charge -0.563  # "Imidazole N3"
Setting atom values ...
  0 settings made for charge
    set type 501 charge 0.185  # "Imidazole C4"
Setting atom values ...
  0 settings made for charge
    set type 502 charge -0.286  # "Imidazole C5"
Setting atom values ...
  16 settings made for charge
    set type 503 charge 0.306  # "Imidazole HN1"
Setting atom values ...
  0 settings made for charge
    set type 504 charge 0.078  # "Imidazole HC2"
Setting atom values ...
  8 settings made for charge
    set type 505 charge 0.075  # "Imidazole HC4"
Setting atom values ...
  8 settings made for charge
    set type 506 charge 0.187  # "Imidazole HC5"
Setting atom values ...
  8 settings made for charge
    set type 507 charge -0.19  # "Furan O"
Setting atom values ...
  0 settings made for charge
    set type 508 charge -0.019  # "Furan C2"
Setting atom values ...
  0 settings made for charge
    set type 509 charge -0.154  # "Furan C3"
Setting atom values ...
  0 settings made for charge
    set type 510 charge 0.142  # "Furan HC2"
Setting atom values ...
  0 settings made for charge
    set type 511 charge 0.126  # "Furan HC3"
Setting atom values ...
  0 settings made for charge
    set type 512 charge -0.257  # "Oxazole O"
Setting atom values ...
  0 settings made for charge
    set type 513 charge 0.511  # "Oxazole C2"
Setting atom values ...
  0 settings made for charge
    set type 514 charge -0.59  # "Oxazole N"
Setting atom values ...
  0 settings made for charge
    set type 515 charge 0.169  # "Oxazole C4"
Setting atom values ...
  0 settings made for charge
    set type 516 charge -0.148  # "Oxazole C5"
Setting atom values ...
  0 settings made for charge
    set type 517 charge 0.043  # "Oxazole HC2"
Setting atom values ...
  0 settings made for charge
    set type 518 charge 0.091  # "Oxazole HC4"
Setting atom values ...
  0 settings made for charge
    set type 519 charge 0.181  # "Oxazole HC5"
Setting atom values ...
  0 settings made for charge
    set type 520 charge -0.122  # "Isoxazole O"
Setting atom values ...
  0 settings made for charge
    set type 521 charge -0.413  # "Isoxazole N"
Setting atom values ...
  0 settings made for charge
    set type 522 charge 0.405  # "Isoxazole C3"
Setting atom values ...
  0 settings made for charge
    set type 523 charge -0.455  # "Isoxazole C4"
Setting atom values ...
  0 settings made for charge
    set type 524 charge 0.25  # "Isoxazole C5"
Setting atom values ...
  0 settings made for charge
    set type 525 charge 0.053  # "Isoxazole HC3"
Setting atom values ...
  0 settings made for charge
    set type 526 charge 0.184  # "Isoxazole HC4"
Setting atom values ...
  0 settings made for charge
    set type 527 charge 0.098  # "Isoxazole HC5"
Setting atom values ...
  0 settings made for charge
    set type 528 charge -0.5  # "Indole N1"
Setting atom values ...
  0 settings made for charge
    set type 529 charge 0.001  # "Indole C2"
Setting atom values ...
  0 settings made for charge
    set type 530 charge -0.39  # "Indole C3"
Setting atom values ...
  0 settings made for charge
    set type 531 charge -0.27  # "Indole C4"
Setting atom values ...
  0 settings made for charge
    set type 532 charge -0.127  # "Indole C5"
Setting atom values ...
  0 settings made for charge
    set type 533 charge -0.108  # "Indole C6"
Setting atom values ...
  0 settings made for charge
    set type 534 charge -0.258  # "Indole C7"
Setting atom values ...
  0 settings made for charge
    set type 535 charge 0.22  # "Indole C8"
Setting atom values ...
  0 settings made for charge
    set type 536 charge 0.225  # "Indole C9"
Setting atom values ...
  0 settings made for charge
    set type 537 charge 0.376  # "Indole HN1"
Setting atom values ...
  0 settings made for charge
    set type 538 charge 0.147  # "Indole HC2"
Setting atom values ...
  0 settings made for charge
    set type 539 charge 0.172  # "Indole HC3"
Setting atom values ...
  0 settings made for charge
    set type 540 charge 0.155  # "Indole HC4"
Setting atom values ...
  0 settings made for charge
    set type 541 charge 0.107  # "Indole HC5"
Setting atom values ...
  0 settings made for charge
    set type 542 charge 0.11  # "Indole HC6"
Setting atom values ...
  0 settings made for charge
    set type 543 charge 0.14  # "Indole HC7"
Setting atom values ...
  0 settings made for charge
    set type 544 charge -0.694  # "Quinoline N1"
Setting atom values ...
  0 settings made for charge
    set type 545 charge 0.425  # "Quinoline C2"
Setting atom values ...
  0 settings made for charge
    set type 546 charge -0.359  # "Quinoline C3"
Setting atom values ...
  0 settings made for charge
    set type 547 charge -0.008  # "Quinoline C4"
Setting atom values ...
  0 settings made for charge
    set type 548 charge -0.197  # "Quinoline C5"
Setting atom values ...
  0 settings made for charge
    set type 549 charge -0.112  # "Quinoline C6"
Setting atom values ...
  0 settings made for charge
    set type 550 charge -0.07  # "Quinoline C7"
Setting atom values ...
  0 settings made for charge
    set type 551 charge -0.307  # "Quinoline C8"
Setting atom values ...
  0 settings made for charge
    set type 552 charge 0.563  # "Quinoline C9"
Setting atom values ...
  0 settings made for charge
    set type 553 charge -0.051  # "Quinoline C10"
Setting atom values ...
  0 settings made for charge
    set type 554 charge 0.028  # "Quinoline HC2"
Setting atom values ...
  0 settings made for charge
    set type 555 charge 0.146  # "Quinoline HC3"
Setting atom values ...
  0 settings made for charge
    set type 556 charge 0.119  # "Quinoline HC4"
Setting atom values ...
  0 settings made for charge
    set type 557 charge 0.133  # "Quinoline HC5"
Setting atom values ...
  0 settings made for charge
    set type 558 charge 0.113  # "Quinoline HC6"
Setting atom values ...
  0 settings made for charge
    set type 559 charge 0.114  # "Quinoline HC7"
Setting atom values ...
  0 settings made for charge
    set type 560 charge 0.157  # "Quinoline HC8"
Setting atom values ...
  0 settings made for charge
    set type 561 charge -0.76  # "Purine N1"
Setting atom values ...
  0 settings made for charge
    set type 562 charge 0.679  # "Purine C2"
Setting atom values ...
  0 settings made for charge
    set type 563 charge -0.788  # "Purine N3"
Setting atom values ...
  0 settings made for charge
    set type 564 charge 0.736  # "Purine C4"
Setting atom values ...
  0 settings made for charge
    set type 565 charge 0.038  # "Purine C5"
Setting atom values ...
  0 settings made for charge
    set type 566 charge 0.343  # "Purine C6"
Setting atom values ...
  0 settings made for charge
    set type 567 charge -0.642  # "Purine N7"
Setting atom values ...
  0 settings made for charge
    set type 568 charge 0.452  # "Purine C8"
Setting atom values ...
  0 settings made for charge
    set type 569 charge -0.682  # "Purine N9"
Setting atom values ...
  0 settings made for charge
    set type 570 charge 0.024  # "Purine HC2"
Setting atom values ...
  0 settings made for charge
    set type 571 charge 0.101  # "Purine HC6"
Setting atom values ...
  0 settings made for charge
    set type 572 charge 0.086  # "Purine HC8"
Setting atom values ...
  0 settings made for charge
    set type 573 charge 0.413  # "Purine HN9"
Setting atom values ...
  0 settings made for charge
    set type 574 charge -0.03  # "Thiazole S"
Setting atom values ...
  0 settings made for charge
    set type 575 charge 0.242  # "Thiazole C2"
Setting atom values ...
  0 settings made for charge
    set type 576 charge -0.515  # "Thiazole N"
Setting atom values ...
  0 settings made for charge
    set type 577 charge 0.228  # "Thiazole C4"
Setting atom values ...
  0 settings made for charge
    set type 578 charge -0.299  # "Thiazole C5"
Setting atom values ...
  0 settings made for charge
    set type 579 charge 0.101  # "Thiazole HC2"
Setting atom values ...
  0 settings made for charge
    set type 580 charge 0.068  # "Thiazole HC4"
Setting atom values ...
  0 settings made for charge
    set type 581 charge 0.205  # "Thiazole HC5"
Setting atom values ...
  0 settings made for charge
    set type 582 charge -0.951  # "1,3,5-Triazine N"
Setting atom values ...
  0 settings made for charge
    set type 583 charge 0.965  # "1,3,5-Triazine CH"
Setting atom values ...
  0 settings made for charge
    set type 584 charge -0.014  # "1,3,5-Triazine CH"
Setting atom values ...
  0 settings made for charge
    set type 585 charge 0.13  # "Serotonin C5-OH"
Setting atom values ...
  0 settings made for charge
    set type 586 charge 0.052  # "Serotonin CH2 on C3"
Setting atom values ...
  0 settings made for charge
    set type 587 charge -0.599  # "1,10-Phenanthroline N"
Setting atom values ...
  0 settings made for charge
    set type 588 charge 0.392  # "1,10-Phenanthroline C2"
Setting atom values ...
  0 settings made for charge
    set type 589 charge -0.348  # "1,10-Phenanthroline C3"
Setting atom values ...
  0 settings made for charge
    set type 590 charge 0.02  # "1,10-Phenanthroline C4"
Setting atom values ...
  0 settings made for charge
    set type 591 charge -0.042  # "1,10-Phenanthroline C12"
Setting atom values ...
  0 settings made for charge
    set type 592 charge 0.347  # "1,10-Phenanthroline C11"
Setting atom values ...
  0 settings made for charge
    set type 593 charge -0.196  # "1,10-Phenanthroline C5"
Setting atom values ...
  0 settings made for charge
    set type 594 charge 0.032  # "1,10-Phenanthroline HC2"
Setting atom values ...
  0 settings made for charge
    set type 595 charge 0.146  # "1,10-Phenanthroline HC3"
Setting atom values ...
  0 settings made for charge
    set type 596 charge 0.108  # "1,10-Phenanthroline HC4"
Setting atom values ...
  0 settings made for charge
    set type 597 charge 0.14  # "1,10-Phenanthroline HC5"
Setting atom values ...
  0 settings made for charge
    set type 598 charge 0.122  # "1-Methylimidazole N1"
Setting atom values ...
  0 settings made for charge
    set type 599 charge 0.166  # "1-Methylimidazole C2"
Setting atom values ...
  0 settings made for charge
    set type 600 charge -0.58  # "1-Methylimidazole N3"
Setting atom values ...
  0 settings made for charge
    set type 601 charge 0.173  # "1-Methylimidazole C4"
Setting atom values ...
  0 settings made for charge
    set type 602 charge -0.395  # "1-Methylimidazole C5"
Setting atom values ...
  0 settings made for charge
    set type 603 charge -0.199  # "1-Methylimidazole CH3-"
Setting atom values ...
  0 settings made for charge
    set type 604 charge 0.118  # "1-Methylimidazole HC2"
Setting atom values ...
  0 settings made for charge
    set type 605 charge 0.093  # "1-Methylimidazole HC4"
Setting atom values ...
  0 settings made for charge
    set type 606 charge 0.208  # "1-Methylimidazole HC5"
Setting atom values ...
  0 settings made for charge
    set type 607 charge 0.098  # "1-Methylimidazole CH3-"
Setting atom values ...
  0 settings made for charge
    set type 608 charge -0.139  # "1-Et Imidazole RCH2-"
Setting atom values ...
  0 settings made for charge
    set type 609 charge -0.079  # "1-iPr Imidazole R2CH-"
Setting atom values ...
  0 settings made for charge
    set type 610 charge 0.099  # "1-MeO-Me-Imidazole CH2"
Setting atom values ...
  0 settings made for charge
    set type 611 charge -0.168  # "2-Me Pyridine CH3"
Setting atom values ...
  0 settings made for charge
    set type 612 charge -0.108  # "2-Et Pyridine CH2"
Setting atom values ...
  0 settings made for charge
    set type 613 charge -0.189  # "3-Me Pyridazine CH3"
Setting atom values ...
  0 settings made for charge
    set type 614 charge -0.129  # "3-Et Pyridazine CH2"
Setting atom values ...
  0 settings made for charge
    set type 615 charge -0.169  # "4-Me Pyrimidine CH3"
Setting atom values ...
  0 settings made for charge
    set type 616 charge -0.109  # "4-Et Pyrimidine CH2"
Setting atom values ...
  0 settings made for charge
    set type 617 charge -0.138  # "2-Me Pyrazine CH3"
Setting atom values ...
  0 settings made for charge
    set type 618 charge -0.078  # "2-Et Pyrazine CH2"
Setting atom values ...
  0 settings made for charge
    set type 619 charge -0.025  # "2-Me Pyrrole CH3"
Setting atom values ...
  0 settings made for charge
    set type 620 charge 0.035  # "2-Et Pyrrole CH2"
Setting atom values ...
  0 settings made for charge
    set type 621 charge -0.038  # "2-Me Furan CH3"
Setting atom values ...
  0 settings made for charge
    set type 622 charge 0.022  # "2-Et Furan CH2"
Setting atom values ...
  0 settings made for charge
    set type 623 charge -0.334  # "6-Mercaptopurine SH"
Setting atom values ...
  0 settings made for charge
    set type 624 charge 0.255  # "6-Mercaptopurine SH"
Setting atom values ...
  0 settings made for charge
    set type 625 charge 0.523  # "6-Mercaptopurine C6"
Setting atom values ...
  0 settings made for charge
    set type 626 charge 0.5  # "Beta-Lactam N-C=O"
Setting atom values ...
  0 settings made for charge
    set type 627 charge -0.14  # "Beta-Lactam N-C=O"
Setting atom values ...
  0 settings made for charge
    set type 628 charge 0.2275  # "Penicillin CH-N"
Setting atom values ...
  0 settings made for charge
    set type 629 charge 0.14  # "Penicillin CH-CO"
Setting atom values ...
  0 settings made for charge
    set type 630 charge -0.008  # "3-Me Indole CH3"
Setting atom values ...
  0 settings made for charge
    set type 631 charge 0.588  # "2-Phenyl Pyridine C2"
Setting atom values ...
  0 settings made for charge
    set type 632 charge -0.103  # "2-Phenyl Pyridine C2'"
Setting atom values ...
  0 settings made for charge
    set type 633 charge -0.332  # "2-Phenyl Pyridine C3"
Setting atom values ...
  0 settings made for charge
    set type 634 charge 0.04  # "2-Phenyl Pyridine C3'"
Setting atom values ...
  0 settings made for charge
    set type 635 charge 0.342  # "2-Phenyl Pyridine C4"
Setting atom values ...
  0 settings made for charge
    set type 636 charge -0.05  # "2-Phenyl Pyridine C4'"
Setting atom values ...
  0 settings made for charge
    set type 637 charge -0.205  # "Diphenyl Thioether S"
Setting atom values ...
  0 settings made for charge
    set type 638 charge 3.0  # "Actinium Ion Ac+3"
Setting atom values ...
  0 settings made for charge
    set type 639 charge 4.0  # "Thorium Ion Th+4"
Setting atom values ...
  0 settings made for charge
    set type 640 charge 3.0  # "Americium Ion Am+3"
Setting atom values ...
  0 settings made for charge
    set type 641 charge 0.619  # "t-Butyl Cation C+"
Setting atom values ...
  0 settings made for charge
    set type 642 charge -0.395  # "t-Butyl Cation CH3-"
Setting atom values ...
  0 settings made for charge
    set type 643 charge 0.174  # "t-Butyl Cation CH3-"
Setting atom values ...
  0 settings made for charge
    set type 644 charge 3.0  # "Lanthanum Ion La+3"
Setting atom values ...
  0 settings made for charge
    set type 645 charge 3.0  # "Neodymium Ion Nd+3"
Setting atom values ...
  0 settings made for charge
    set type 646 charge 3.0  # "Europium Ion Eu+3"
Setting atom values ...
  0 settings made for charge
    set type 647 charge 3.0  # "Gadolinium Ion Gd+3"
Setting atom values ...
  0 settings made for charge
    set type 648 charge 3.0  # "Ytterbium Ion Yb+3"
Setting atom values ...
  0 settings made for charge
    set type 649 charge -0.344  # "Cl..CH3..Cl- Sn2 TS"
Setting atom values ...
  0 settings made for charge
    set type 650 charge -0.628  # "Cl..CH3..Cl- Sn2 TS"
Setting atom values ...
  0 settings made for charge
    set type 651 charge 0.2  # "Cl..CH3..Cl- Sn2 TS"
Setting atom values ...
  0 settings made for charge
    set type 652 charge -0.12  # "Cyclopropane -CH2-"
Setting atom values ...
  0 settings made for charge
    set type 653 charge -0.06  # "Cyclopropane -CHR-"
Setting atom values ...
  0 settings made for charge
    set type 654 charge 0.0  # "Cyclopropane -CR2-"
Setting atom values ...
  0 settings made for charge
    set type 655 charge -0.23  # "Cyclopentadienyl Anion"
Setting atom values ...
  0 settings made for charge
    set type 656 charge 0.03  # "Cyclopentadienyl Anion"
Setting atom values ...
  0 settings made for charge
    set type 657 charge -0.099  # "Cyclopentadienyl Radical"
Setting atom values ...
  0 settings made for charge
    set type 658 charge 0.099  # "Cyclopentadienyl Radical"
Setting atom values ...
  0 settings made for charge
    set type 659 charge 0.22  # "Fluorobenzene CF"
Setting atom values ...
  0 settings made for charge
    set type 660 charge -0.22  # "Fluorobenzene CF"
Setting atom values ...
  0 settings made for charge
    set type 661 charge 0.13  # "Hexafluorobenzene CF"
Setting atom values ...
  0 settings made for charge
    set type 662 charge -0.13  # "Hexafluorobenzene CF"
Setting atom values ...
  0 settings made for charge
    set type 663 charge -0.22  # "Bromide -CH2-Br (UA)"
Setting atom values ...
  0 settings made for charge
    set type 664 charge 0.22  # "Bromide -CH2-Br (UA)"
Setting atom values ...
  0 settings made for charge
    set type 665 charge 0.15  # "TrifluoroMeBenzene C-CF3"
Setting atom values ...
  0 settings made for charge
    set type 666 charge 0.45  # "TrifluoroMeBenzene CF3-"
Setting atom values ...
  0 settings made for charge
    set type 667 charge -0.2  # "TrifluoroMeBenzene CF3-"
Setting atom values ...
  0 settings made for charge
    set type 668 charge 0.2  # "Difluorobenzene CF"
Setting atom values ...
  0 settings made for charge
    set type 669 charge -0.2  # "Difluorobenzene CF"
Setting atom values ...
  0 settings made for charge
    set type 670 charge 0.2  # "Bromobenzene CBr"
Setting atom values ...
  0 settings made for charge
    set type 671 charge -0.2  # "Bromobenzene CBr"
Setting atom values ...
  0 settings made for charge
    set type 672 charge 0.1  # "Iodobenzene CI"
Setting atom values ...
  0 settings made for charge
    set type 673 charge -0.1  # "Iodobenzene CI"
Setting atom values ...
  0 settings made for charge
    set type 674 charge 0.055  # "cProp/cBut Benzene C-Ar"
Setting atom values ...
  0 settings made for charge
    set type 675 charge -0.22  # "Thiophenol SH"
Setting atom values ...
  0 settings made for charge
    set type 676 charge 0.065  # "Thiophenol C-SH"
Setting atom values ...
  0 settings made for charge
    set type 677 charge 0.013  # "Benzamidine CG"
Setting atom values ...
  0 settings made for charge
    set type 678 charge -0.106  # "Benzamidine CD"
Setting atom values ...
  0 settings made for charge
    set type 679 charge -0.09  # "Benzamidine CE"
Setting atom values ...
  0 settings made for charge
    set type 680 charge -0.119  # "Benzamidine CZ"
Setting atom values ...
  0 settings made for charge
    set type 681 charge 0.141  # "Benzamidine HCD"
Setting atom values ...
  0 settings made for charge
    set type 682 charge 0.129  # "Benzamidine HCE"
Setting atom values ...
  0 settings made for charge
    set type 683 charge 0.827  # "Benzamidine C+"
Setting atom values ...
  0 settings made for charge
    set type 684 charge -0.885  # "Benzamidine -NH2"
Setting atom values ...
  0 settings made for charge
    set type 685 charge 0.426  # "Benzamidine H1-N"
Setting atom values ...
  0 settings made for charge
    set type 686 charge 0.465  # "Benzamidine H2-N"
Setting atom values ...
  0 settings made for charge
    set type 687 charge 0.119  # "Benzamidine HCG"
Setting atom values ...
  0 settings made for charge
    set type 688 charge -0.02  # "Neutral MeGdn CH3-"
Setting atom values ...
  0 settings made for charge
    set type 689 charge 0.04  # "Neutral ARG CD"
Setting atom values ...
  0 settings made for charge
    set type 690 charge -0.62  # "Neutral ARG NE"
Setting atom values ...
  0 settings made for charge
    set type 691 charge -0.785  # "Neutral ARG N1 (HN=C)"
Setting atom values ...
  0 settings made for charge
    set type 692 charge -0.785  # "Neutral ARG N2 (H2N-C)"
Setting atom values ...
  0 settings made for charge
    set type 693 charge 0.55  # "Neutral ARG CZ (>C=)"
Setting atom values ...
  0 settings made for charge
    set type 694 charge -0.56  # "Alkyl Nitrile -CN"
Setting atom values ...
  0 settings made for charge
    set type 695 charge 0.46  # "Alkyl Nitrile -CN"
Setting atom values ...
  0 settings made for charge
    set type 696 charge -0.08  # "Acetonitrile CH3-CN"
Setting atom values ...
  0 settings made for charge
    set type 697 charge -0.02  # "Alkyl Nitrile RCH2-CN"
Setting atom values ...
  0 settings made for charge
    set type 698 charge 0.04  # "Alkyl Nitrile R2CH-CN"
Setting atom values ...
  0 settings made for charge
    set type 699 charge 0.1  # "Alkyl Nitrile R3C-CN"
Setting atom values ...
  0 settings made for charge
    set type 700 charge 0.06  # "Alkyl Nitrile H-C-CN"
Setting atom values ...
  0 settings made for charge
    set type 701 charge 0.54  # "Nitroalkane -NO2"
Setting atom values ...
  0 settings made for charge
    set type 702 charge -0.37  # "Nitroalkane -NO2"
Setting atom values ...
  0 settings made for charge
    set type 703 charge 0.02  # "Nitromethane CH3-NO2"
Setting atom values ...
  0 settings made for charge
    set type 704 charge 0.06  # "Nitroalkane H-C-NO2"
Setting atom values ...
  0 settings made for charge
    set type 705 charge 0.08  # "Nitroalkane RCH2-NO2"
Setting atom values ...
  0 settings made for charge
    set type 706 charge 0.14  # "Nitroalkane R2CH-NO2"
Setting atom values ...
  0 settings made for charge
    set type 707 charge 0.2  # "Nitroalkane R3C-NO2"
Setting atom values ...
  0 settings made for charge
    set type 708 charge 0.65  # "Nitrobenzene -NO2"
Setting atom values ...
  0 settings made for charge
    set type 709 charge 0.09  # "Nitrobenzene C-NO2"
Setting atom values ...
  0 settings made for charge
    set type 710 charge 0.035  # "Benzonitrile -CH2-"
Setting atom values ...
  0 settings made for charge
    set type 711 charge -0.9  # "Neutral Benzamidine N"
Setting atom values ...
  0 settings made for charge
    set type 712 charge -0.5  # "Propylene Carbonate C=O"
Setting atom values ...
  0 settings made for charge
    set type 713 charge 0.86  # "Propylene Carbonate C=O"
Setting atom values ...
  0 settings made for charge
    set type 714 charge -0.45  # "Propylene Carbonate C-O"
Setting atom values ...
  0 settings made for charge
    set type 715 charge 0.21  # "Propylene Carbonate CH2"
Setting atom values ...
  0 settings made for charge
    set type 716 charge 0.16  # "Propylene Carbonate CH"
Setting atom values ...
  0 settings made for charge
    set type 717 charge -0.1  # "Propylene Carbonate CH3"
Setting atom values ...
  0 settings made for charge
    set type 718 charge 0.03  # "Propylene Carbonate CH2"
Setting atom values ...
  0 settings made for charge
    set type 719 charge 0.03  # "Propylene Carbonate CH"
Setting atom values ...
  0 settings made for charge
    set type 720 charge 0.06  # "Propylene Carbonate CH3"
Setting atom values ...
  0 settings made for charge
    set type 721 charge -0.78  # "GTP O-(POn)2"
Setting atom values ...
  0 settings made for charge
    set type 722 charge 0.9684  # "Phosphonium R4P+"
Setting atom values ...
  0 settings made for charge
    set type 723 charge -0.5081  # "Phosphonium CH3-PR3+"
Setting atom values ...
  0 settings made for charge
    set type 724 charge -0.008  # "Phosphonium RCH2-PR3+"
Setting atom values ...
  0 settings made for charge
    set type 725 charge 0.172  # "Phosphonium CH3-PR3+"
Setting atom values ...
  0 settings made for charge
    set type 726 charge 1.34  # "Hexafluorophosphate Ion"
Setting atom values ...
  0 settings made for charge
    set type 727 charge -0.39  # "Hexafluorophosphate Ion"
Setting atom values ...
  0 settings made for charge
    set type 728 charge 0.794  # "Nitrate Ion NO3-"
Setting atom values ...
  0 settings made for charge
    set type 729 charge -0.598  # "Nitrate Ion NO3-"
Setting atom values ...
  0 settings made for charge
    set type 730 charge -0.9  # "Amine RNH2"
Setting atom values ...
  0 settings made for charge
    set type 731 charge -0.78  # "Amine R2NH"
[...]
   81800    279.58135   -565.45055    157.26073   -295.68367    412.89173     5783.868 
   81900    299.77428   -570.47893    148.38074   -301.46621    877.04532    5530.4403 
   82000    291.28171   -572.70846    152.30101   -303.19296      683.257    5388.4842 
   82100    292.93382   -573.58635    150.37769   -305.32935     1598.926    5262.4976 
   82200    290.39742   -576.37733    150.25452   -309.26417    1523.8233    5124.4613 
   82300    288.23876   -576.31036    150.91013   -309.41025    1037.4001    5023.7759 
   82400    292.50508   -585.23081      155.476   -312.04803    957.87287    4860.4614 
   82500    324.12141   -587.80202     146.6781   -310.69443    1540.8561    4970.7345 
   82600    303.38582   -570.53553    148.97494   -299.47531    1104.4125    5518.8384 
   82700    287.35648   -567.86487     153.7985   -298.43144    386.51137    5558.2583 
   82800    276.56069   -555.36132    153.87223   -290.19848    647.52992    5856.4926 
   82900    276.45603   -549.92713    157.49295   -281.18569   -36.542796    6119.5268 
   83000    326.48122   -563.77788    143.63855   -288.76023    394.72457    5690.9338 
   83100    297.87643   -559.23271    147.61437   -291.75007    529.90402    5706.2769 
   83200    299.31719   -567.96414    146.54227   -300.97383   -28.966227    5421.3628 
   83300    289.68537   -568.77391    151.31132   -300.89049   -56.424267    5365.0651 
   83400    298.97975    -561.5636    146.73357   -294.51778    544.71146     5527.942 
   83500    307.98133    -569.2322    150.95082    -294.3468   -238.31615    5460.7588 
   83600    281.67732   -561.20859    154.03225   -293.82675   -492.48984     5567.837 
   83700    270.22471   -557.68928    155.19382   -293.75451    44.533805     5501.925 
   83800    303.71378   -561.95905    147.17591   -292.56588    404.15931    5422.0192 
   83900    324.07132   -555.78393    137.24252   -288.13208   -874.39405    5657.0693 
   84000    330.18752   -576.34139    142.89424    -300.5766   -1122.1743    5301.2443 
   84100    287.79506   -563.97235    152.69219   -295.46874    219.74278    5685.8791 
   84200    305.77206   -560.55632    141.26872   -296.24207   -573.17184    5653.7908 
   84300    302.73484   -557.12411    144.25211   -291.04867   -961.60612    5808.0089 
   84400    288.10864   -561.32721    150.07835   -295.31125    501.17249    5503.1124 
   84500    318.55568   -578.27465    149.15806   -300.92681   -150.54699    5326.5761 
   84600    325.96551   -569.66971    134.64945   -303.84869    473.54578    5500.9821 
   84700    281.29575   -567.80587    150.91964   -303.69019     -445.274    5633.2446 
   84800    264.45139   -557.77597    156.11242   -295.24583   -663.01264    5930.8995 
   84900    299.74145   -558.34596    142.76808   -294.95912    940.42372    5836.0248 
   85000    288.95917    -561.4124    151.03012    -294.1024    65.646647    5819.4206 
   85100     309.7236   -561.94411    142.97229   -294.33614   -868.60175    5795.4229 
   85200    298.70777   -563.81566    147.29705    -296.3158    814.14389    5704.0623 
   85300    292.69329   -578.33573    152.52205   -308.03116   -260.50437    5271.7074 
   85400    296.27683   -573.01863    149.11271   -304.68135     320.4066    5459.0946 
   85500    322.00061   -577.05648    137.13491   -310.34551   -55.993969    5208.0384 
   85600     295.4398   -562.94259    145.03225   -299.02261    460.84916    5537.6367 
   85700    295.54728   -575.58973    151.31212   -305.34662    1500.7485    5144.0651 
   85800    307.44743   -569.67614    148.68739   -297.26902    1232.2941    5551.6671 
   85900    313.13394   -574.44006     143.3218   -305.11023    1281.0884     5425.683 
   86000    291.13089   -562.93032     147.3733   -298.40323    1186.7008    5736.5544 
   86100    304.21596   -562.36264    146.48113   -293.46216    982.59409    5890.5754 
   86200    293.79308   -555.90041    150.37935   -287.29598    639.25486    6073.6988 
   86300    313.19172   -564.98346    146.01754   -292.93465     1037.635     5762.744 
   86400    322.63477   -577.12986    144.74153   -302.55708    819.32135    5439.2883 
   86500    296.62371   -562.12819    141.20461   -301.55942    582.67185     5598.304 
   86600     302.3139   -574.66265    145.62011    -307.3886     583.3182    5297.5982 
   86700    292.15702   -563.18634    147.42093   -298.19869    1058.8331    5643.9645 
   86800    301.47963   -569.18629    149.41968   -298.44839    385.70908    5535.0661 
   86900    292.41284   -562.48793     152.9926   -291.82566     873.2317    5759.9751 
   87000    285.63796   -550.92128    153.35145   -282.62644   -275.55358    6179.7941 
   87100    322.46832    -554.0337     141.2867   -282.98272    588.66377    6216.8863 
   87200     293.7609   -557.12015    149.96989   -288.93812   -1232.9344    6030.1876 
   87300    309.76552   -565.56697    148.02065   -292.89377   -101.24152    5835.1803 
   87400    296.13303   -570.52027     149.5572   -301.79637    -609.9739    5580.5517 
   87500    280.85399   -570.08046    154.15526   -302.90693   -595.96863     5577.115 
   87600    286.12904   -571.42562    152.69898   -303.58563   -589.58695    5515.7038 
   87700     287.3007   -564.30843    149.82184    -298.8741   -623.19092    5713.2457 
   87800    293.74574   -565.68397     151.0083   -296.46963   -937.42376    5776.4516 
   87900    286.85468   -560.46842    153.27465   -291.76076   -1390.0785    5931.6679 
   88000    278.82133    -561.4891    153.85616   -295.43263   -603.83464    5679.2196 
   88100    294.02732   -562.73716    152.77947   -291.63835   -561.84455    5773.9282 
   88200    298.69893   -556.49522    150.75892   -285.53705   -335.35558    6028.5202 
   88300    309.87149   -564.23434     148.9355   -290.60366   -236.97514    5813.9971 
   88400    312.86737   -568.15921    146.06895    -296.1895   -372.51754    5704.6736 
   88500    300.19752   -554.83181    146.70112   -287.32841   -1197.3894    6200.5719 
   88600    321.79031   -560.29754    141.16015   -289.64596   -34.681292    6099.7257 
   88700      304.907   -546.36341    141.76779   -281.89819   -791.95736    6409.5088 
   88800    293.59831   -547.41561    151.20336   -278.06554    466.74984    6389.0938 
   88900    277.11847   -541.71136    158.63301   -271.56329   -13.286216    6466.4931 
   89000    295.29089   -552.59667    159.58473   -274.18412    419.04306    6175.3804 
   89100    294.89279    -560.6827    159.21149   -282.80359   -399.78268    5965.3947 
   89200    305.02595   -570.71588    152.10366   -295.86692    501.99632    5601.3739 
   89300    294.28286   -565.89255      151.701   -295.76938    -300.0243    5689.8937 
   89400    314.76703   -565.18376    145.09436    -293.4242   -360.11828    5748.8643 
   89500    306.67574    -556.6282    148.43398   -284.78504   -531.31098    6055.1071 
   89600    299.72496   -564.36343    155.34323   -288.40807    207.69066     5877.717 
   89700    291.49889   -558.15171    153.03175   -287.81808    78.384306    5982.0738 
   89800    319.14845   -564.41855    143.87045   -292.11978    1219.6303    5804.2114 
   89900    297.69337    -562.5995    150.73219   -292.07271   -257.61603    5874.1768 
   90000      291.584   -548.87158    148.59689   -282.93856    27.718432    6265.8855 
   90100    298.89319    -555.2352    151.69354   -283.26424   -1483.2248    6141.8782 
   90200    287.77953    -554.8921    154.88313   -284.20379    518.46576    6110.0823 
   90300    298.53983   -563.97015    151.69912   -292.13581     101.5792    5826.2405 
   90400    293.90263   -564.85588    150.67032    -295.9164     1437.237    5733.7537 
   90500    294.64005   -574.74844    154.70047   -301.48205   -691.09645    5514.9047 
   90600    281.47841   -580.59704    162.07938   -305.24812    1259.0283    5384.3194 
   90700    292.72434   -569.58805    152.51945   -299.27359   -494.99321    5688.4282 
   90800    302.46971   -567.30167    148.04413    -297.5409    1296.8813    5777.7059 
   90900    302.12273   -557.33687    147.98921   -287.77065    -738.3459    6225.3093 
   91000    278.57557   -557.37019    156.28398   -288.98479    632.46762    6149.8626 
   91100    289.91747   -558.81702    154.90082    -287.2507    173.71641    6112.5369 
   91200    284.55018   -570.62461    159.67796   -296.44099    13.073765    5726.2031 
   91300    285.22758   -567.72244     153.2153    -299.7289    371.17174    5708.9906 
   91400    287.88294   -566.69683    151.05371   -299.79633    132.72651    5650.9961 
   91500    311.68005   -578.10797    149.00401   -303.68099   -408.71145    5417.8362 
   91600    307.22988   -576.96153    147.22432   -306.10503    402.28047    5336.9604 
   91700    307.94985   -580.54328    148.95603   -307.66535    325.34819     5241.631 
   91800     284.8174   -571.97139     158.3551   -299.00311   -549.01303    5545.1027 
   91900    303.42333   -575.61975    149.65268   -303.86667    82.674788    5377.4812 
   92000     301.9165   -566.47592    149.39031   -295.59159   -40.244285    5760.1128 
   92100    301.49239   -572.60325    151.39457   -299.88533   -1487.6134    5556.1439 
   92200     296.6242   -571.83338    153.07328   -299.39575   -183.53986    5592.5919 
   92300    283.04519   -552.37232    148.77493   -289.69736   -274.88557    6075.5521 
   92400     301.5902   -566.06371    150.53546   -294.16553    75.271444    5759.5004 
   92500    297.96916   -566.72177    150.85079    -295.9654   -581.37975    5723.4793 
   92600    290.56959   -573.83341    153.08779   -303.81769    307.59083     5454.816 
   92700    290.99226   -569.52624    150.10454   -302.32369   -58.199105    5545.8741 
   92800    254.10267   -585.12928    167.90795   -314.96803   -605.78913    5090.8541 
   92900    271.94306   -580.67113    157.45248   -313.78621   -62.799817    5148.0152 
   93000    305.20591   -586.74761    146.56267   -317.36723    382.81336    5036.2324 
   93100    297.03046   -584.26249    149.62899   -315.10566    480.31895    5143.5872 
   93200    275.47022   -576.92177    157.10815   -308.96183   -253.13589    5384.7153 
   93300    292.44675   -573.67152    151.72192   -304.26629   -268.67106      5572.14 
   93400     299.5083   -562.30829    148.20294    -293.5804    307.67216    5917.8877 
   93500    285.21627   -554.85313    154.20899   -285.87045   -245.63664    6198.4704 
   93600    304.20987   -558.51688    146.99553   -289.10445    581.75448    6092.1225 
   93700     309.3555   -563.49026    147.63783   -291.36488   -33.190018    5982.5413 
   93800    280.30409   -555.72512    155.23688   -287.69125    332.45288    6154.0583 
   93900    303.09862   -569.73267     152.4093   -295.35365   -695.07077     5706.676 
   94000    289.23566    -567.9427    156.01382   -295.53775    363.27356    5740.8616 
   94100    289.89045   -568.33374    153.47014   -298.20897   -215.05568    5721.8452 
   94200    282.38806    -564.6903     156.8478   -294.20691   -333.05078    5930.0075 
   94300    317.47812   -568.78757    140.85273   -300.17868    336.92064    5645.2068 
   94400    269.79678   -563.31196    159.45665   -295.28656    513.78816    5762.8863 
   94500    294.23549    -574.5096    156.01458    -300.0919   -269.38909    5487.8936 
   94600    292.74502   -582.95087    156.70405   -308.44348    245.32931    5277.4469 
   94700    287.36989    -580.1971    155.51168   -309.04508    717.72794    5330.8655 
   94800     275.9257   -570.66232    155.30078   -304.32645    388.88832     5538.658 
   94900    304.66294   -576.44376    149.26669   -304.57786   -426.71452     5449.963 
   95000    295.34123   -560.27939     149.9607   -291.47062    423.57642    5922.2045 
   95100    287.97843   -570.93378     156.5892   -298.45937    1615.5961    5590.3174 
   95200    308.91327   -576.23788    146.34025   -305.58803    935.01766    5407.2491 
   95300    307.45686   -578.71247    147.20901   -307.77994    77.185518    5404.8844 
   95400     319.4662   -579.58525    141.89769   -309.13136   -118.74542    5377.4615 
   95500     295.7922   -579.95865     152.3926    -308.5365    1471.3743    5417.6618 
   95600    298.63093   -576.19537    150.12603   -305.89746    -280.6755    5594.1285 
   95700    312.70835   -557.29046    140.27188   -291.18181    948.23657     6276.204 
   95800    302.12764   -547.65405    140.33636    -285.7387   -77.463426    6477.6848 
   95900    300.29668   -552.87315    148.36379   -283.66716    657.68355    6298.9874 
   96000     294.0195   -556.91901    150.80508   -287.79773   -979.63377    6002.9807 
   96100    302.58427    -567.0953     149.9507   -295.38185     192.8693    5691.5153 
   96200    307.80451   -570.42834    144.59996   -301.96496    32.144593    5515.0092 
   96300    309.81842   -579.02232    145.77647   -308.57203     210.3276     5443.963 
   96400     299.3748    -581.2752    146.92327   -313.88071   -976.57482    5358.4592 
   96500    285.95417    -565.9175    145.56215   -305.28472    574.05888    5654.2351 
   96600    300.09481   -574.55383    149.18753   -304.60534   -1133.0619    5558.4079 
   96700    301.43608    -559.1658    145.55191   -292.31319    516.55098    5973.5564 
   96800    301.36136   -568.33949    147.60516    -299.4637    620.26157    5568.4527 
   96900    313.78667   -572.21545     145.5143   -300.43046   -376.74813    5568.8387 
   97000    314.14338    -567.6336    143.35439   -297.86497   -1186.0816    5770.5972 
   97100    295.48078   -563.44779    148.96353   -295.58003    184.49213    5813.9179 
   97200    312.16624   -572.66148    145.39695   -301.64591   -35.395144    5545.0361 
   97300    299.99927   -577.74637    147.80895   -309.21491    463.67208    5300.8215 
   97400    296.09751   -580.91458     149.6887   -312.07347   -236.22632    5206.4441 
   97500    298.63348   -587.21872    151.36221    -315.6836   -516.34397    5098.9388 
   97600    296.87915    -581.3544    149.60972   -312.27774   -166.33752    5266.6219 
   97700    309.75495    -580.7967    144.87154   -311.27687    963.16383    5321.0363 
   97800    309.54369   -582.55156    145.12615   -312.86214    794.73991    5388.0554 
   97900    259.27708   -569.98051    161.33429   -304.31069    19.645837     5751.082 
   98000    286.28843   -566.97073    147.73399    -304.0316   -187.16157    5697.2333 
   98100    320.44066   -573.78207    140.98262   -303.85114    1258.4675    5720.5457 
   98200    292.13477   -566.02418    147.68216   -300.78425   -1245.1159    5898.0052 
   98300    304.53791   -571.28442    142.73787   -305.99765    921.11842    5641.3897 
   98400    314.33954   -577.47942    141.78073   -309.20552   -215.97519    5501.3191 
   98500    315.44922   -572.77508    138.27828   -307.55708   -419.28001    5623.5833 
   98600    310.70768   -571.10592    138.27559   -307.79866   -754.68361     5661.413 
   98700    298.80367   -571.34042     145.2746   -305.82443    1496.8508    5710.8859 
   98800      297.975   -556.05823    142.92169   -293.22861   -1110.5087    6156.1249 
   98900    288.48584   -570.33884    152.38984    -301.8596    376.73517    5665.0671 
   99000    267.95261   -564.96078    157.82219   -299.31196    303.69858    5713.2172 
   99100    303.74462   -571.45534    147.92212   -301.30354   -62.606041    5629.3807 
   99200    296.87012   -570.76384    149.22612   -302.07441   -707.32706    5564.6882 
   99300     293.4235   -562.92742    148.57197   -296.27909    444.17809    5847.7537 
   99400    296.28425   -561.45107    146.38179   -295.84173   -382.30412    5839.0862 
   99500    285.81175   -567.71908    155.63515   -297.07061    356.09752    5781.6439 
   99600    314.47609   -567.13463    139.80831    -300.7782    92.293917    5734.8277 
   99700    289.49706   -557.74437    144.58471   -296.66333    590.63983    5905.3583 
   99800    279.99827   -567.96282    155.85303   -299.43587   -996.23285      5653.67 
   99900    306.10603   -560.28189    146.84022   -290.26174   -614.16501    6018.1379 
  100000     316.4721   -574.38871    148.47498    -298.5624   -1048.9083    5725.9667 
  100100    302.29709   -560.54385    144.75189   -294.14479    -464.6827    6112.4978 
  100200    285.95948   -563.92294    150.52374   -298.32642   -290.32023    5871.9001 
  100300    313.67176   -574.04051    142.96984   -304.84621   -1261.6012    5605.1145 
  100400    295.79187   -557.86019    141.73279   -297.09798    700.85319    5960.4761 
  100500    298.31643   -555.93368    145.50629   -290.38207   -347.03404    6141.6477 
  100600    310.96186   -562.94343    145.96072   -291.84874    300.10153    5957.1296 
  100700    303.78703   -559.96202    148.71436   -289.00091   -585.57663    6048.4772 
  100800    305.20878   -555.05786    143.65082   -288.58817    620.54709    6073.5164 
  100900    278.06241   -560.33826    158.46613   -289.97722   -910.65468    6039.3855 
  101000     281.8383   -563.29574    153.87759   -296.00378     561.3057    5881.0764 
  101100     280.8635   -563.25534    151.92602   -298.30722    1046.5268    5779.6222 
  101200    300.46646   -563.55005    147.43704   -295.20249    1520.9248    5842.8457 
  101300    288.09647   -566.85901    151.91906   -299.00724    211.38834    5667.5239 
  101400    303.20577    -558.5925    146.42429   -290.15537    2106.3133    5992.7975 
  101500    327.34313   -567.88473    139.00432   -297.15447     1050.338     5764.757 
  101600    300.06993   -568.01944    145.13454   -302.13395    1791.9808    5697.0028 
  101700    293.63934   -583.39659    149.25524   -315.97813    1137.3557    5238.8252 
  101800    307.55372   -573.48869    134.34482   -315.38137    1351.2076    5286.0009 
  101900    295.55733   -581.81485    144.32271   -318.55711   -181.01706    5097.5626 
  102000    296.70587   -583.75728    147.18114   -317.17891    1720.9016     5089.115 
  102100    294.05074    -577.9293    147.06991   -312.53062    151.23874    5264.4192 
  102200    310.55435   -571.72339     141.2636   -305.48981    116.97548    5548.9268 
  102300    303.72627   -572.66574    143.39118   -307.05227    95.830957    5554.8484 
  102400    318.70249   -573.67194    136.42925   -308.99382    313.54272    5609.5165 
  102418    317.35885   -577.41416    137.53859    -312.1674    955.77826    5526.1223 
Loop time of 45.2809 on 1 procs for 100000 steps with 136 atoms

Performance: 190.809 ns/day, 0.126 hours/ns, 2208.438 timesteps/s
100.0% CPU use with 1 MPI tasks x no OpenMP threads

MPI task timing breakdown:
Section |  min time  |  avg time  |  max time  |%varavg| %total
---------------------------------------------------------------
Pair    | 19.295     | 19.295     | 19.295     |   0.0 | 42.61
Bond    | 6.1184     | 6.1184     | 6.1184     |   0.0 | 13.51
Kspace  | 10.828     | 10.828     | 10.828     |   0.0 | 23.91
Neigh   | 1.503      | 1.503      | 1.503      |   0.0 |  3.32
Comm    | 0.66155    | 0.66155    | 0.66155    |   0.0 |  1.46
Output  | 0.041802   | 0.041802   | 0.041802   |   0.0 |  0.09
Modify  | 6.6838     | 6.6838     | 6.6838     |   0.0 | 14.76
Other   |            | 0.1488     |            |       |  0.33

Nlocal:        136.000 ave         136 max         136 min
Histogram: 1 0 0 0 0 0 0 0 0 0
Nghost:        2316.00 ave        2316 max        2316 min
Histogram: 1 0 0 0 0 0 0 0 0 0
Neighs:        14289.0 ave       14289 max       14289 min
Histogram: 1 0 0 0 0 0 0 0 0 0

Total # of neighbors = 14289
Ave neighs/atom = 105.06618
Ave special neighs/atom = 8.2352941
Neighbor list builds = 2690
Dangerous builds = 0

write_data   system_after_npt.data
System init for write_data ...
PPPM initialization ...
  using 12-bit tables for long-range coulomb (../kspace.cpp:340)
  G vector (1/distance) = 0.21360742
  grid = 6 6 6
  stencil order = 5
  estimated absolute RMS force accuracy = 0.015223788
  estimated relative force accuracy = 4.5845986e-05
  using double precision KISS FFT
  3d grid and FFT values/proc = 1331 216
Total wall time: 0:00:46
