LAMMPS (31 Aug 2021)
# PREREQUISITES:
#
#     You must use moltemplate.sh to create 3 files:
#        system.data  system.in.init  system.in.settings
#     (Follow the instructions in README_setup.sh,
#      or run the file as a script using ./README_setup.sh)

# ------------------------------- Initialization Section --------------------

include         "system.in.init"
    units real
    atom_style full
    bond_style harmonic
    angle_style harmonic
    dihedral_style opls
    improper_style harmonic
    pair_style lj/cut/coul/long 11.0 11.0
      # (Note to self: The pair_style used by OPLSAA/M (2015) is:
      #                lj/charmm/coul/long 9.0 11.0
      #                ...so this will have to be updated eventually.)
    pair_modify mix geometric
    special_bonds lj/coul 0.0 0.0 0.5
    kspace_style pppm 0.0001

# ------------------------------- Atom Definition Section -------------------

read_data       "system.data"
Reading data file ...
  orthogonal box = (0.0000000 0.0000000 0.0000000) to (20.000000 20.000000 20.000000)
  1 by 1 by 1 MPI processor grid
  reading atoms ...
  2125 atoms
  scanning bonds ...
  3 = max bonds/atom
  scanning angles ...
  6 = max angles/atom
  scanning dihedrals ...
  9 = max dihedrals/atom
  reading bonds ...
  2000 bonds
  reading angles ...
  2625 angles
  reading dihedrals ...
  4000 dihedrals
Finding 1-2 1-3 1-4 neighbors ...
  special bond factors lj:    0        0        0.5     
  special bond factors coul:  0        0        0.5     
     4 = max # of 1-2 neighbors
     7 = max # of 1-3 neighbors
    14 = max # of 1-4 neighbors
    15 = max # of special neighbors
  special bonds CPU = 0.001 seconds
  read_data CPU = 0.010 seconds

# OPLSAA atom charges are stored in a separate file.
# Load that file now:

include         "system.in.charges"
    #--------------------- IMPORTANT -----------------------
    # The first 56 atom types (excluding 48,49) are not intended for use in an
    # ordinary (all-atom) simulation.  Instead, these atoms were intended for
    # use with "United Atom" molecules which lack hydrogen atoms.
    # (They belong to the OPLSUA force field, not the OPLSAA force field.)
    #--------------------------------------------------------
    set type 1 charge -0.22  # "Fluoride -CH2-F (UA)"    DON'T USE(OPLSUA)
Setting atom values ...
  0 settings made for charge
    set type 2 charge 0.22  # "Fluoride -CH2-F (UA)"     DON'T USE(OPLSUA)
Setting atom values ...
  0 settings made for charge
    set type 3 charge 0.55  # "Acetic Acid -COOH (UA)"   DON'T USE(OPLSUA)
Setting atom values ...
  0 settings made for charge
    set type 4 charge -0.5  # "Acetic Acid >C=O (UA)"    DON'T USE(OPLSUA)
Setting atom values ...
  0 settings made for charge
    set type 5 charge -0.58  # "Acetic Acid -OH (UA)"    DON'T USE(OPLSUA)
Setting atom values ...
  0 settings made for charge
    set type 6 charge 0.08  # "Acetic Acid CH3- (UA)"    DON'T USE(OPLSUA)
Setting atom values ...
  0 settings made for charge
    set type 7 charge 0.45  # "Acetic Acid -OH (UA)"     DON'T USE(OPLSUA)
Setting atom values ...
  0 settings made for charge
    set type 8 charge 0.0  # "Methane CH4 (UA)"          DON'T USE(OPLSUA)
Setting atom values ...
  0 settings made for charge
    set type 9 charge 0.0  # "Ethane CH3- (UA)"          DON'T USE(OPLSUA)
Setting atom values ...
  0 settings made for charge
    set type 10 charge 0.0  # "N-Alkane CH3- (UA)"       DON'T USE(OPLSUA)
Setting atom values ...
  0 settings made for charge
    set type 11 charge 0.0  # "Isobutane CH3- (UA)"      DON'T USE(OPLSUA)
Setting atom values ...
  0 settings made for charge
    set type 12 charge 0.0  # "Neopentane CH3- (UA)"     DON'T USE(OPLSUA)
Setting atom values ...
  0 settings made for charge
    set type 13 charge 0.0  # "Alkanes -CH2- (UA)"       DON'T USE(OPLSUA)
Setting atom values ...
  0 settings made for charge
    set type 14 charge 0.0  # "1-Alkene CH2= (UA)"       DON'T USE(OPLSUA)
Setting atom values ...
  0 settings made for charge
    set type 15 charge 0.0  # "Isobutane CH (UA)"        DON'T USE(OPLSUA)
Setting atom values ...
  0 settings made for charge
    set type 16 charge 0.0  # "2-Alkene -CH= (UA)"       DON'T USE(OPLSUA)
Setting atom values ...
  0 settings made for charge
    set type 17 charge 0.0  # "Aromatic CH (UA)"         DON'T USE(OPLSUA)
Setting atom values ...
  0 settings made for charge
    set type 18 charge 0.0  # "Neopentane C (UA)"        DON'T USE(OPLSUA)
Setting atom values ...
  0 settings made for charge
    set type 19 charge 0.0  # "Isobutene >C= (UA)"       DON'T USE(OPLSUA)
Setting atom values ...
  0 settings made for charge
    set type 20 charge -0.7  # "Alcohol OH (UA)"         DON'T USE(OPLSUA)
Setting atom values ...
  0 settings made for charge
    set type 21 charge 0.435  # "Alcohol OH (UA)"        DON'T USE(OPLSUA)
Setting atom values ...
  0 settings made for charge
    set type 22 charge 0.265  # "Methanol CH3- (UA)"     DON'T USE(OPLSUA)
Setting atom values ...
  0 settings made for charge
    set type 23 charge 0.265  # "Ethanol -CH2OH (UA)"    DON'T USE(OPLSUA)
Setting atom values ...
  0 settings made for charge
    set type 24 charge -0.47  # "Hydrogen Sulfide H2S"   DON'T USE(OPLSUA)
Setting atom values ...
  0 settings made for charge
    set type 25 charge -0.45  # "Alkyl Sulfide RSH (UA)" DON'T USE(OPLSUA)
Setting atom values ...
  0 settings made for charge
    set type 26 charge -0.47  # "Thioether RSR (UA)"     DON'T USE(OPLSUA)
Setting atom values ...
  0 settings made for charge
    set type 27 charge -0.3  # "Disulfide RSSR (UA)"     DON'T USE(OPLSUA)
Setting atom values ...
  0 settings made for charge
    set type 28 charge 0.235  # "Hydrogen Sulfide H2S"   DON'T USE(OPLSUA)
Setting atom values ...
  0 settings made for charge
    set type 29 charge 0.27  # "Alkyl Sulfide RSH (UA)"  DON'T USE(OPLSUA)
Setting atom values ...
  0 settings made for charge
    set type 30 charge 0.18  # "Methyl Sulfide CH3 (UA)" DON'T USE(OPLSUA)
Setting atom values ...
  0 settings made for charge
    set type 31 charge 0.18  # "Alkyl Sulfide CH2 (UA)"  DON'T USE(OPLSUA)
Setting atom values ...
  0 settings made for charge
    set type 32 charge 0.235  # "Thioether CH3 (UA)"     DON'T USE(OPLSUA)
Setting atom values ...
  0 settings made for charge
    set type 33 charge 0.235  # "Thioether CH2 (UA)"     DON'T USE(OPLSUA)
Setting atom values ...
  0 settings made for charge
    set type 34 charge 0.3  # "Disulfide CH3 (UA)"       DON'T USE(OPLSUA)
Setting atom values ...
  0 settings made for charge
    set type 35 charge 0.3  # "Disulfide CH2 (UA)"       DON'T USE(OPLSUA)
Setting atom values ...
  0 settings made for charge
    set type 36 charge -0.43  # "Acetonitrile -CN (UA)"  DON'T USE(OPLSUA)
Setting atom values ...
  0 settings made for charge
    set type 37 charge 0.28  # "Acetonitrile -CN (UA)"   DON'T USE(OPLSUA)
Setting atom values ...
  0 settings made for charge
    set type 38 charge 0.15  # "Acetonitrile CH3 (UA)"   DON'T USE(OPLSUA)
Setting atom values ...
  0 settings made for charge
    set type 39 charge 0.265  # "Isopropanol >CHOH (UA)" DON'T USE(OPLSUA)
Setting atom values ...
  0 settings made for charge
    set type 40 charge 0.265  # "t-Butanol COH (UA)"     DON'T USE(OPLSUA)
Setting atom values ...
  0 settings made for charge
    set type 41 charge -0.5  # "Ether ROR (UA)"          DON'T USE(OPLSUA)
Setting atom values ...
  0 settings made for charge
    set type 42 charge 0.25  # "Ether CH3-OR (UA)"       DON'T USE(OPLSUA)
Setting atom values ...
  0 settings made for charge
    set type 43 charge 0.25  # "Ether -CH2-OR (UA)"      DON'T USE(OPLSUA)
Setting atom values ...
  0 settings made for charge
    set type 44 charge 0.5  # "Methylene Chloride (UA)"  DON'T USE(OPLSUA)
Setting atom values ...
  0 settings made for charge
    set type 45 charge -0.25  # "Methylene Chloride (UA)"DON'T USE(OPLSUA)
Setting atom values ...
  0 settings made for charge
    set type 46 charge 0.42  # "Chloroform CHCl3 (UA)"   DON'T USE(OPLSUA)
Setting atom values ...
  0 settings made for charge
    set type 47 charge -0.14  # "Chloroform CHCl3 (UA)"  DON'T USE(OPLSUA)
Setting atom values ...
  0 settings made for charge
    set type 48 charge 0.248  # "Carbon Tetrachloride"
Setting atom values ...
  0 settings made for charge
    set type 49 charge -0.062  # "Carbon Tetrachloride"
Setting atom values ...
  0 settings made for charge
    set type 50 charge 0.139  # "DMSO >S=O (UA)"         DON'T USE(OPLSUA)
Setting atom values ...
  0 settings made for charge
    set type 51 charge -0.459  # "DMSO >S=O (UA)"        DON'T USE(OPLSUA)
Setting atom values ...
  0 settings made for charge
    set type 52 charge 0.16  # "DMSO CH3- (UA)"          DON'T USE(OPLSUA)
Setting atom values ...
  0 settings made for charge
    set type 53 charge -0.5  # "DMF C=O (UA)"            DON'T USE(OPLSUA)
Setting atom values ...
  0 settings made for charge
    set type 54 charge -0.57  # "DMF CON< (UA)"          DON'T USE(OPLSUA)
Setting atom values ...
  0 settings made for charge
    set type 55 charge 0.5  # "DMF C=O (UA)"             DON'T USE(OPLSUA)
Setting atom values ...
  0 settings made for charge
    set type 56 charge 0.285  # "DMF CH3- (UA)"          DON'T USE(OPLSUA)
Setting atom values ...
  0 settings made for charge
    #--------------------------------------------------------
    # ORDINARY (OPLSAA) ATOM TYPES BEGIN HERE:
    # Do not use the "UA" atom types above this line in an all-atom simulation.
    #--------------------------------------------------------
    set type 57 charge 0.0  # "Dummy Atom"
Setting atom values ...
  0 settings made for charge
    set type 58 charge 0.0  # "Helium Atom"
Setting atom values ...
  0 settings made for charge
    set type 59 charge 0.0  # "Neon Atom"
Setting atom values ...
  0 settings made for charge
    set type 60 charge 0.0  # "Argon Atom"
Setting atom values ...
  0 settings made for charge
    set type 61 charge 0.0  # "Krypton Atom"
Setting atom values ...
  0 settings made for charge
    set type 62 charge 0.0  # "Xenon Atom"
Setting atom values ...
  0 settings made for charge
    set type 63 charge -0.834  # "TIP3P Water O"
Setting atom values ...
  0 settings made for charge
    set type 64 charge 0.417  # "TIP3P Water H"
Setting atom values ...
  0 settings made for charge
    set type 65 charge 0.0  # "TIP4P Water O"
Setting atom values ...
  0 settings made for charge
    set type 66 charge 0.52  # "TIP4P Water H"
Setting atom values ...
  0 settings made for charge
    set type 67 charge -1.04  # "TIP4P Water M"
Setting atom values ...
  0 settings made for charge
    set type 68 charge -0.822  # "TIP3F Water O"
Setting atom values ...
  0 settings made for charge
    set type 69 charge 0.411  # "TIP3F Water H"
Setting atom values ...
  0 settings made for charge
    set type 70 charge 0.0  # "TIP4F Water O"
Setting atom values ...
  0 settings made for charge
    set type 71 charge 0.511  # "TIP4F Water H"
Setting atom values ...
  0 settings made for charge
    set type 72 charge -1.022  # "TIP4F Water M"
Setting atom values ...
  0 settings made for charge
    set type 73 charge 0.0  # "TIP5P Water O"
Setting atom values ...
  0 settings made for charge
    set type 74 charge 0.241  # "TIP5P Water H"
Setting atom values ...
  0 settings made for charge
    set type 75 charge -0.241  # "TIP5P Water LP"
Setting atom values ...
  0 settings made for charge
    set type 76 charge -0.82  # "SPC Water O"
Setting atom values ...
  0 settings made for charge
    set type 77 charge 0.41  # "SPC Water H"
Setting atom values ...
  0 settings made for charge
    set type 78 charge -1.02  # "Ammonia NH3"
Setting atom values ...
  0 settings made for charge
    set type 79 charge 0.34  # "Ammonia NH3"
Setting atom values ...
  0 settings made for charge
    set type 80 charge -0.18  # "Alkane CH3-"
Setting atom values ...
  0 settings made for charge
    set type 81 charge -0.12  # "Alkane -CH2-"
Setting atom values ...
  0 settings made for charge
    set type 82 charge -0.06  # "Alkane >CH-"
Setting atom values ...
  0 settings made for charge
    set type 83 charge -0.24  # "Methane CH4"
Setting atom values ...
  0 settings made for charge
    set type 84 charge 0.0  # "Alkane >C<"
Setting atom values ...
  0 settings made for charge
    set type 85 charge 0.06  # "Alkane H-C"
Setting atom values ...
  0 settings made for charge
    set type 86 charge 0.0  # "Alkene R2-C="
Setting atom values ...
  0 settings made for charge
    set type 87 charge -0.115  # "Alkene RH-C="
Setting atom values ...
  0 settings made for charge
    set type 88 charge -0.23  # "Alkene H2-C="
Setting atom values ...
  0 settings made for charge
    set type 89 charge 0.115  # "Alkene H-C="
Setting atom values ...
  0 settings made for charge
    set type 90 charge -0.115  # "Aromatic C"
Setting atom values ...
  0 settings made for charge
    set type 91 charge 0.115  # "Aromatic H-C"
Setting atom values ...
  0 settings made for charge
    set type 92 charge 0.0  # "Naphthalene Fusion C"
Setting atom values ...
  0 settings made for charge
    set type 93 charge -0.065  # "Ethyl Benzene CH3-"
Setting atom values ...
  0 settings made for charge
    set type 94 charge -0.005  # "Ethyl Benzene -CH2-"
Setting atom values ...
  0 settings made for charge
    set type 95 charge -0.115  # "Diene =CH-CH="
Setting atom values ...
  0 settings made for charge
    set type 96 charge -0.683  # "Alcohol -OH"
Setting atom values ...
  0 settings made for charge
    set type 97 charge 0.418  # "Alcohol -OH"
Setting atom values ...
  0 settings made for charge
    set type 98 charge 0.04  # "Methanol CH3-"
Setting atom values ...
  0 settings made for charge
    set type 99 charge 0.145  # "Alcohol CH3OH & RCH2OH"
Setting atom values ...
  0 settings made for charge
    set type 100 charge 0.205  # "Alcohol R2CHOH"
Setting atom values ...
  0 settings made for charge
    set type 101 charge 0.265  # "Alcohol R3COH"
Setting atom values ...
  0 settings made for charge
    set type 102 charge 0.1263  # "Trifluoroethanol -CH2-"
Setting atom values ...
  0 settings made for charge
    set type 103 charge 0.5323  # "Trifluoroethanol CF3-"
Setting atom values ...
  0 settings made for charge
    set type 104 charge -0.6351  # "Trifluoroethanol -OH"
Setting atom values ...
  0 settings made for charge
    set type 105 charge 0.4286  # "Trifluoroethanol -OH"
Setting atom values ...
  0 settings made for charge
    set type 106 charge -0.2057  # "Trifluoroethanol F"
Setting atom values ...
  0 settings made for charge
    set type 107 charge 0.0825  # "Trifluoroethanol -CH2-"
Setting atom values ...
  0 settings made for charge
    set type 108 charge 0.15  # "Phenol C-OH"
Setting atom values ...
  0 settings made for charge
    set type 109 charge -0.585  # "Phenol -OH"
Setting atom values ...
  0 settings made for charge
    set type 110 charge 0.435  # "Phenol -OH"
Setting atom values ...
  0 settings made for charge
    set type 111 charge -0.7  # "Diol -OH"
Setting atom values ...
  0 settings made for charge
    set type 112 charge 0.435  # "Diol -OH"
Setting atom values ...
  0 settings made for charge
    set type 113 charge -0.73  # "Triol -OH"
Setting atom values ...
  0 settings made for charge
    set type 114 charge 0.465  # "Triol -OH"
Setting atom values ...
  0 settings made for charge
    set type 115 charge 0.145  # "Diol & Triol -CH2OH"
Setting atom values ...
  0 settings made for charge
    set type 116 charge 0.205  # "Diol & Triol -CHROH"
Setting atom values ...
  0 settings made for charge
    set type 117 charge 0.265  # "Diol & Triol -CR2OH"
Setting atom values ...
  0 settings made for charge
    set type 118 charge 0.06  # "Diol & Triol H-COH"
Setting atom values ...
  0 settings made for charge
    set type 119 charge -0.17  # "Diphenyl Ether"
Setting atom values ...
  0 settings made for charge
    set type 120 charge 0.0  # "Diene =CR-CR="
Setting atom values ...
  0 settings made for charge
    set type 121 charge -0.285  # "Anisole -OCH3"
Setting atom values ...
  0 settings made for charge
    set type 122 charge -0.4  # "Dialkyl Ether -O-"
Setting atom values ...
  0 settings made for charge
    set type 123 charge 0.11  # "Methyl Ether CH3OR"
Setting atom values ...
  0 settings made for charge
    set type 124 charge 0.14  # "Ethyl Ether -CH2OR"
Setting atom values ...
  0 settings made for charge
    set type 125 charge 0.17  # "Isopropyl Ether >CHOR"
Setting atom values ...
  0 settings made for charge
    set type 126 charge 0.2  # "t-Butyl Ether COR"
Setting atom values ...
  0 settings made for charge
    set type 127 charge 0.03  # "Alkyl Ether H-COR"
Setting atom values ...
  0 settings made for charge
    set type 128 charge -0.4  # "Acetal RO-CR2OX"
Setting atom values ...
  0 settings made for charge
    set type 129 charge -0.7  # "Hemiacetal -OH"
Setting atom values ...
  0 settings made for charge
    set type 130 charge 0.435  # "Hemiacetal -OH"
Setting atom values ...
  0 settings made for charge
    set type 131 charge 0.2  # "Acetal RO-CH2-OR"
Setting atom values ...
  0 settings made for charge
    set type 132 charge 0.1  # "Acetal RO-CH2-OR"
Setting atom values ...
  0 settings made for charge
    set type 133 charge 0.265  # "Hemiacetal RO-CH2-OH"
Setting atom values ...
  0 settings made for charge
    set type 134 charge 0.1  # "Hemiacetal RO-CH2-OH"
Setting atom values ...
  0 settings made for charge
    set type 135 charge 0.3  # "Acetal RO-CHR-OR"
Setting atom values ...
  0 settings made for charge
    set type 136 charge 0.1  # "Acetal RO-CHR-OR"
Setting atom values ...
  0 settings made for charge
    set type 137 charge 0.365  # "Hemiacetal RO-CHR-OH"
Setting atom values ...
  0 settings made for charge
    set type 138 charge 0.1  # "Hemiacetal RO-CHR-OH"
Setting atom values ...
  0 settings made for charge
    set type 139 charge 0.4  # "Acetal RO-CR2-OR"
Setting atom values ...
  0 settings made for charge
    set type 140 charge 0.465  # "Hemiacetal RO-CR2-OH"
Setting atom values ...
  0 settings made for charge
    set type 141 charge 0.085  # "Anisole C-OCH3"
Setting atom values ...
  0 settings made for charge
    set type 142 charge -0.335  # "Thiol -SH"
Setting atom values ...
  0 settings made for charge
    set type 143 charge -0.47  # "Hydrogen Sulfide H2S"
Setting atom values ...
  0 settings made for charge
    set type 144 charge -0.435  # "Sulfide -S-"
Setting atom values ...
  0 settings made for charge
    set type 145 charge -0.2175  # "Disulfide -S-S-"
Setting atom values ...
  0 settings made for charge
    set type 146 charge 0.155  # "Thiol -SH"
Setting atom values ...
  0 settings made for charge
    set type 147 charge 0.235  # "Hydrogen Sulfide H2S"
Setting atom values ...
  0 settings made for charge
    set type 148 charge 0.06  # "Thiol -CH2-SH"
Setting atom values ...
  0 settings made for charge
    set type 149 charge 0.12  # "Thiol >CH-SH"
Setting atom values ...
  0 settings made for charge
    set type 150 charge 0.18  # "Thiol C-SH"
Setting atom values ...
  0 settings made for charge
    set type 151 charge 0.0375  # "Methyl Sulfide CH3-SR"
Setting atom values ...
  0 settings made for charge
    set type 152 charge 0.0975  # "Sulfide RCH2-SR"
Setting atom values ...
  0 settings made for charge
    set type 153 charge 0.1575  # "Sulfide R2CH-SR"
Setting atom values ...
  0 settings made for charge
    set type 154 charge 0.2175  # "Sulfide R3C-SR"
Setting atom values ...
  0 settings made for charge
    set type 155 charge 0.0375  # "Disulfide CH3-S-SR"
Setting atom values ...
  0 settings made for charge
    set type 156 charge 0.0975  # "Disulfide RCH2-S-SR"
Setting atom values ...
  0 settings made for charge
    set type 157 charge 0.1575  # "Disulfide R2CH-S-SR"
Setting atom values ...
  0 settings made for charge
    set type 158 charge 0.2175  # "Disulfide R3C-S-SR"
Setting atom values ...
  0 settings made for charge
    set type 159 charge 0.0  # "Methanethiol CH3-SH"
Setting atom values ...
  0 settings made for charge
    set type 160 charge 0.2  # "Benzyl Alcohol -CH2OH"
Setting atom values ...
  0 settings made for charge
    set type 161 charge 0.26  # "Benzyl Alcohol -CHROH"
Setting atom values ...
  0 settings made for charge
    set type 162 charge 0.32  # "Benzyl Alcohol -CR2OH"
Setting atom values ...
  0 settings made for charge
    set type 163 charge -0.055  # "Benzyl Alcohol/Nitrile"
Setting atom values ...
  0 settings made for charge
    set type 164 charge -0.32  # "Thioanisole -SCH3"
Setting atom values ...
  0 settings made for charge
    set type 165 charge 0.08  # "RCH2-NH2 & GLY CA"
Setting atom values ...
  0 settings made for charge
    set type 166 charge 0.14  # "RCHR-NH2 & ALA CA"
Setting atom values ...
  0 settings made for charge
    set type 167 charge 0.2  # "R3C-NH2 & AIB CA"
Setting atom values ...
  0 settings made for charge
    set type 168 charge -0.12  # "Chloroalkene Cl-CH="
Setting atom values ...
  0 settings made for charge
    set type 169 charge 0.005  # "Chloroalkene Cl-CH="
Setting atom values ...
  0 settings made for charge
    set type 170 charge 0.1025  # "Thioanisole C-SCH3"
Setting atom values ...
  0 settings made for charge
    set type 171 charge 0.14  # "Amide -NH-CHR2"
Setting atom values ...
  0 settings made for charge
    set type 172 charge 0.2  # "Amide -NH-CR3"
Setting atom values ...
  0 settings made for charge
    set type 173 charge 0.7  # "Benzophenone C=O"
Setting atom values ...
  0 settings made for charge
    set type 174 charge 0.565  # "Benzaldehyde C=O"
Setting atom values ...
  0 settings made for charge
    set type 175 charge 0.585  # "Acetophenone C=O"
Setting atom values ...
  0 settings made for charge
    set type 176 charge 0.615  # "Benzamide C=O"
Setting atom values ...
  0 settings made for charge
    set type 177 charge 0.5  # "Amide C=O"
Setting atom values ...
  0 settings made for charge
    set type 178 charge -0.5  # "Amide C=O"
Setting atom values ...
  0 settings made for charge
    set type 179 charge -0.76  # "Amide -CO-NH2"
Setting atom values ...
  0 settings made for charge
    set type 180 charge -0.5  # "Amide -CO-NHR"
Setting atom values ...
  0 settings made for charge
    set type 181 charge -0.14  # "Amide -CO-NR2"
Setting atom values ...
  0 settings made for charge
    set type 182 charge 0.38  # "Amide -CO-NH2"
Setting atom values ...
  0 settings made for charge
    set type 183 charge 0.3  # "Amide -CO-NHR"
Setting atom values ...
  0 settings made for charge
    set type 184 charge 0.02  # "Amide -NH-CH3"
Setting atom values ...
  0 settings made for charge
    set type 185 charge -0.11  # "Amide -NR-CH3"
Setting atom values ...
  0 settings made for charge
    set type 186 charge 0.08  # "Amide -NH-CH2R"
Setting atom values ...
  0 settings made for charge
    set type 187 charge -0.05  # "Amide -NR-CH2R & PRO CD"
Setting atom values ...
  0 settings made for charge
    set type 188 charge 0.01  # "Amide -NR-CHR2 & PRO CA"
Setting atom values ...
  0 settings made for charge
    set type 189 charge 0.142  # "Urea C=O"
Setting atom values ...
  0 settings made for charge
    set type 190 charge -0.39  # "Urea C=O"
Setting atom values ...
  0 settings made for charge
    set type 191 charge -0.542  # "Urea -NH2"
Setting atom values ...
  0 settings made for charge
    set type 192 charge 0.333  # "Urea -NH2"
Setting atom values ...
  0 settings made for charge
    set type 193 charge -0.49  # "Imide -NH-"
Setting atom values ...
  0 settings made for charge
    set type 194 charge 0.42  # "Imide C=O"
Setting atom values ...
  0 settings made for charge
    set type 195 charge -0.42  # "Imide C=O"
Setting atom values ...
  0 settings made for charge
    set type 196 charge 0.37  # "Imide -NH-"
Setting atom values ...
  0 settings made for charge
    set type 197 charge 0.06  # "Formimide H-C=O"
Setting atom values ...
  0 settings made for charge
    set type 198 charge -0.12  # "Imide CH3-CONHCO-"
Setting atom values ...
  0 settings made for charge
    set type 199 charge -0.06  # "Imide -CH2-CONHCO-"
Setting atom values ...
  0 settings made for charge
    set type 200 charge 0.0  # "Imide >CH-CONHCO-"
Setting atom values ...
  0 settings made for charge
    set type 201 charge 0.06  # "Imide C-CONHCO-"
Setting atom values ...
  0 settings made for charge
    set type 202 charge 0.035  # "Benzonitrile C-CN"
Setting atom values ...
  0 settings made for charge
    set type 203 charge 0.395  # "Benzonitrile -CN"
Setting atom values ...
  0 settings made for charge
    set type 204 charge -0.43  # "Benzonitrile -CN"
Setting atom values ...
  0 settings made for charge
    set type 205 charge 0.18  # "Chlorobenzene C-Cl"
Setting atom values ...
  0 settings made for charge
    set type 206 charge -0.18  # "Chlorobenzene C-Cl"
Setting atom values ...
  0 settings made for charge
    set type 207 charge -0.385  # "N-Phenylacetamide N"
Setting atom values ...
  0 settings made for charge
    set type 208 charge 0.085  # "N-Phenylacetamide N-CA"
Setting atom values ...
  0 settings made for charge
    set type 209 charge 0.52  # "Carboxylic Acid -COOH"
Setting atom values ...
  0 settings made for charge
    set type 210 charge -0.44  # "Carboxylic Acid C=O"
Setting atom values ...
  0 settings made for charge
    set type 211 charge -0.53  # "Carboxylic Acid -OH"
Setting atom values ...
  0 settings made for charge
    set type 212 charge 0.45  # "Carboxylic Acid -COOH"
Setting atom values ...
  0 settings made for charge
    set type 213 charge 0.7  # "Carboxylate COO-"
Setting atom values ...
  0 settings made for charge
    set type 214 charge -0.8  # "Carboxylate COO-"
Setting atom values ...
  0 settings made for charge
    set type 215 charge -0.28  # "Carboxylate CH3-COO-"
Setting atom values ...
  0 settings made for charge
    set type 216 charge -0.22  # "Carboxylate RCH2-COO-"
Setting atom values ...
  0 settings made for charge
    set type 217 charge -0.16  # "Carboxylate R2CH-COO-"
Setting atom values ...
  0 settings made for charge
    set type 218 charge -0.1  # "Carboxylate R3C-COO-"
Setting atom values ...
  0 settings made for charge
    set type 219 charge 0.45  # "Aldehyde/Acyl Halide C=O"
Setting atom values ...
  0 settings made for charge
    set type 220 charge -0.45  # "Aldehyde/Acyl Halide C=O"
Setting atom values ...
  0 settings made for charge
    set type 221 charge 0.0  # "Aldehyde/Formamide H-C=O"
Setting atom values ...
  0 settings made for charge
    set type 222 charge 0.47  # "Ketone C=O"
Setting atom values ...
  0 settings made for charge
    set type 223 charge -0.47  # "Ketone C=O"
Setting atom values ...
  0 settings made for charge
    set type 224 charge 0.06  # "Acyl H-C-COX"
Setting atom values ...
  0 settings made for charge
    set type 225 charge 0.04  # "C-Terminal ALA CA"
Setting atom values ...
  0 settings made for charge
    set type 226 charge -0.02  # "C-Terminal GLY CA"
Setting atom values ...
  0 settings made for charge
    set type 227 charge 0.1  # "C-Terminal AIB CA"
Setting atom values ...
  0 settings made for charge
    set type 228 charge -0.09  # "C-Terminal PRO CA"
Setting atom values ...
  0 settings made for charge
    set type 229 charge -0.4  # "Ammonium NH4+"
Setting atom values ...
  0 settings made for charge
    set type 230 charge -0.3  # "Ammonium RNH3+"
Setting atom values ...
  0 settings made for charge
    set type 231 charge 0.0  # "Ammonium R4N+"
Setting atom values ...
  0 settings made for charge
    set type 232 charge 0.35  # "Ammonium NH4+"
Setting atom values ...
  0 settings made for charge
    set type 233 charge 0.33  # "Ammonium RNH3+"
Setting atom values ...
  0 settings made for charge
    set type 234 charge 0.13  # "Ammonium CH3-NH3+"
Setting atom values ...
  0 settings made for charge
    set type 235 charge 0.19  # "CH3NH3+/N-Term GLY CA"
Setting atom values ...
  0 settings made for charge
    set type 236 charge 0.25  # "RCH2NH3+/N-Term ALA CA"
Setting atom values ...
  0 settings made for charge
    set type 237 charge 0.31  # "R3C-NH3+/N-Term AIB CA"
Setting atom values ...
  0 settings made for charge
    set type 238 charge 0.23  # "N-Terminal PRO CA"
Setting atom values ...
  0 settings made for charge
    set type 239 charge 0.17  # "N-Terminal PRO CD"
Setting atom values ...
  0 settings made for charge
    set type 240 charge 0.11  # "Ammonium CH3-NH2R+"
Setting atom values ...
  0 settings made for charge
    set type 241 charge 0.09  # "GLY Zwitterion CA"
Setting atom values ...
  0 settings made for charge
    set type 242 charge 0.15  # "ALA Zwitterion CA"
Setting atom values ...
  0 settings made for charge
    set type 243 charge -0.8  # "Guanidinium -NH2"
Setting atom values ...
  0 settings made for charge
    set type 244 charge 0.46  # "Guanidinium -NH2"
Setting atom values ...
  0 settings made for charge
    set type 245 charge 0.64  # "Guanidinium C+"
Setting atom values ...
  0 settings made for charge
    set type 246 charge -0.7  # "Guanidinium -NHR"
Setting atom values ...
  0 settings made for charge
    set type 247 charge 0.44  # "Guanidinium -NHR"
Setting atom values ...
  0 settings made for charge
    set type 248 charge 0.2  # "Me Guanidinium CH3-"
Setting atom values ...
  0 settings made for charge
    set type 249 charge -0.11  # "Et Guanidinium CH3-"
Setting atom values ...
  0 settings made for charge
    set type 250 charge 0.19  # "Et Guan -CH2- & ARG CD"
Setting atom values ...
  0 settings made for charge
    set type 251 charge -0.05  # "Pr Guan -CH2- & ARG CG"
Setting atom values ...
  0 settings made for charge
    set type 252 charge -0.2  # "Ammonium R2NH2+"
Setting atom values ...
  0 settings made for charge
    set type 253 charge 0.31  # "Ammonium R2NH2+"
Setting atom values ...
  0 settings made for charge
    set type 254 charge -0.46  # "Diaminopyridine N1"
Setting atom values ...
  0 settings made for charge
    set type 255 charge 0.36  # "Diaminopyridine C2"
Setting atom values ...
  0 settings made for charge
    set type 256 charge -0.85  # "Diaminopyridine -NH2"
Setting atom values ...
  0 settings made for charge
    set type 257 charge 0.37  # "Diaminopyridine -NH2"
Setting atom values ...
  0 settings made for charge
    set type 258 charge -0.15  # "Diaminopyridine C3"
Setting atom values ...
  0 settings made for charge
    set type 259 charge 0.1  # "Diaminopyridine H3"
Setting atom values ...
  0 settings made for charge
    set type 260 charge -0.04  # "Diaminopyridine C4"
Setting atom values ...
  0 settings made for charge
    set type 261 charge 0.1  # "Diaminopyridine H4"
Setting atom values ...
  0 settings made for charge
    set type 262 charge -0.6  # "Uracil & Thymine N1"
Setting atom values ...
  0 settings made for charge
    set type 263 charge 0.5  # "Uracil & Thymine C2"
Setting atom values ...
  0 settings made for charge
    set type 264 charge -0.51  # "Uracil & Thymine N3"
Setting atom values ...
  0 settings made for charge
    set type 265 charge 0.45  # "Uracil & Thymine C4"
Setting atom values ...
  0 settings made for charge
    set type 266 charge -0.07  # "Uracil & Thymine C5"
Setting atom values ...
  0 settings made for charge
    set type 267 charge 0.08  # "Uracil & Thymine C6"
Setting atom values ...
  0 settings made for charge
    set type 268 charge 0.41  # "Uracil & Thymine HN1"
Setting atom values ...
  0 settings made for charge
    set type 269 charge -0.4  # "Uracil & Thymine O2"
Setting atom values ...
  0 settings made for charge
    set type 270 charge 0.36  # "Uracil & Thymine HN3"
Setting atom values ...
  0 settings made for charge
    set type 271 charge -0.42  # "Uracil & Thymine O4"
Setting atom values ...
  0 settings made for charge
    set type 272 charge 0.1  # "Uracil & Thymine HC5"
Setting atom values ...
  0 settings made for charge
    set type 273 charge 0.1  # "Uracil & Thymine HC6"
Setting atom values ...
  0 settings made for charge
    set type 274 charge -0.14  # "Thymine CH3-"
Setting atom values ...
  0 settings made for charge
    set type 275 charge 0.08  # "Thymine CH3-"
Setting atom values ...
  0 settings made for charge
    set type 276 charge -0.56  # "Cytosine N1"
Setting atom values ...
  0 settings made for charge
    set type 277 charge 0.55  # "Cytosine C2"
Setting atom values ...
  0 settings made for charge
    set type 278 charge -0.54  # "Cytosine N3"
Setting atom values ...
  0 settings made for charge
    set type 279 charge 0.46  # "Cytosine C4"
Setting atom values ...
  0 settings made for charge
    set type 280 charge -0.06  # "Cytosine C5"
Setting atom values ...
  0 settings made for charge
    set type 281 charge 0.1  # "Cytosine C6"
Setting atom values ...
  0 settings made for charge
    set type 282 charge 0.38  # "Cytosine HN1"
Setting atom values ...
  0 settings made for charge
    set type 283 charge -0.48  # "Cytosine O2"
Setting atom values ...
  0 settings made for charge
    set type 284 charge -0.79  # "Cytosine NH2-"
Setting atom values ...
  0 settings made for charge
    set type 285 charge 0.385  # "Cytosine NH2- (N3)"
Setting atom values ...
  0 settings made for charge
    set type 286 charge 0.355  # "Cytosine NH2- (C5)"
Setting atom values ...
  0 settings made for charge
    set type 287 charge 0.1  # "Cytosine HC5"
Setting atom values ...
  0 settings made for charge
    set type 288 charge 0.1  # "Cytosine HC6"
Setting atom values ...
  0 settings made for charge
    set type 289 charge -0.53  # "Adenine N1"
Setting atom values ...
  0 settings made for charge
    set type 290 charge 0.22  # "Adenine C2"
Setting atom values ...
  0 settings made for charge
    set type 291 charge -0.55  # "Adenine N3"
Setting atom values ...
  0 settings made for charge
    set type 292 charge 0.38  # "Adenine C4"
Setting atom values ...
  0 settings made for charge
    set type 293 charge 0.15  # "Adenine C5"
Setting atom values ...
  0 settings made for charge
    set type 294 charge 0.44  # "Adenine C6"
Setting atom values ...
  0 settings made for charge
    set type 295 charge -0.49  # "Adenine & Guanine N7"
Setting atom values ...
  0 settings made for charge
    set type 296 charge 0.2  # "Adenine & Guanine C8"
Setting atom values ...
  0 settings made for charge
    set type 297 charge -0.5  # "Adenine & Guanine N9"
Setting atom values ...
  0 settings made for charge
    set type 298 charge 0.2  # "Adenine HC2"
Setting atom values ...
  0 settings made for charge
    set type 299 charge -0.81  # "Adenine NH2-"
Setting atom values ...
  0 settings made for charge
    set type 300 charge 0.385  # "Adenine NH2- (N1)"
Setting atom values ...
  0 settings made for charge
    set type 301 charge 0.355  # "Adenine NH2- (C5)"
Setting atom values ...
  0 settings made for charge
    set type 302 charge 0.2  # "Adenine & Guanine HC8"
Setting atom values ...
  0 settings made for charge
    set type 303 charge 0.35  # "Adenine & Guanine HN9"
Setting atom values ...
  0 settings made for charge
    set type 304 charge -0.56  # "Guanine N1"
Setting atom values ...
  0 settings made for charge
    set type 305 charge 0.46  # "Guanine C2"
Setting atom values ...
  0 settings made for charge
    set type 306 charge -0.51  # "Guanine N3"
Setting atom values ...
  0 settings made for charge
    set type 307 charge 0.34  # "Guanine C4"
Setting atom values ...
  0 settings made for charge
    set type 308 charge 0.12  # "Guanine C5"
Setting atom values ...
  0 settings made for charge
    set type 309 charge 0.52  # "Guanine C6"
Setting atom values ...
  0 settings made for charge
    set type 310 charge 0.38  # "Guanine HN1"
Setting atom values ...
  0 settings made for charge
    set type 311 charge -0.8  # "Guanine NH2-"
Setting atom values ...
  0 settings made for charge
    set type 312 charge 0.4  # "Guanine NH2-"
Setting atom values ...
  0 settings made for charge
    set type 313 charge -0.51  # "Guanine O6"
Setting atom values ...
  0 settings made for charge
    set type 314 charge -0.01  # "9-Me A & 9-Me-G CH3-"
Setting atom values ...
  0 settings made for charge
    set type 315 charge 0.12  # "9-Me-A & 9-Me-G CH3-"
Setting atom values ...
  0 settings made for charge
    set type 316 charge -0.01  # "1-Me-U & 1-Me-T CH3-"
Setting atom values ...
  0 settings made for charge
    set type 317 charge 0.14  # "1-Me-U & 1-Me-T CH3-"
Setting atom values ...
  0 settings made for charge
    set type 318 charge -0.01  # "1-Me-Cytosine CH3-"
Setting atom values ...
  0 settings made for charge
    set type 319 charge 0.13  # "1-Me-Cytosine CH3-"
Setting atom values ...
  0 settings made for charge
    set type 320 charge -0.64  # "CytosineH+ N1"
Setting atom values ...
  0 settings made for charge
    set type 321 charge 0.65  # "CytosineH+ C2"
Setting atom values ...
  0 settings made for charge
    set type 322 charge -0.74  # "CytosineH+ N3"
Setting atom values ...
  0 settings made for charge
    set type 323 charge 0.66  # "CytosineH+ C4"
Setting atom values ...
  0 settings made for charge
    set type 324 charge -0.06  # "CytosineH+ C5"
Setting atom values ...
  0 settings made for charge
    set type 325 charge 0.1  # "CytosineH+ C6"
Setting atom values ...
  0 settings made for charge
    set type 326 charge 0.49  # "CytosineH+ HN1"
Setting atom values ...
  0 settings made for charge
    set type 327 charge -0.3  # "CytosineH+ O2"
Setting atom values ...
  0 settings made for charge
    set type 328 charge 0.48  # "CytosineH+ HN3"
Setting atom values ...
  0 settings made for charge
    set type 329 charge -0.81  # "CytosineH+ NH2-"
Setting atom values ...
  0 settings made for charge
    set type 330 charge 0.46  # "CytosineH+ NH2- (N3)"
Setting atom values ...
  0 settings made for charge
    set type 331 charge 0.43  # "CytosineH+ NH2- (C5)"
Setting atom values ...
  0 settings made for charge
    set type 332 charge 0.14  # "CytosineH+ HC5"
Setting atom values ...
  0 settings made for charge
    set type 333 charge 0.14  # "CytosineH+ HC6"
Setting atom values ...
  0 settings made for charge
    set type 334 charge 0.01  # "1-Me-CytosineH+ CH3-"
Setting atom values ...
  0 settings made for charge
    set type 335 charge 0.16  # "1-Me-CytosineH+ CH3-"
Setting atom values ...
  0 settings made for charge
    set type 336 charge 0.78  # "DiMePhosphate P (UA)"
Setting atom values ...
  0 settings made for charge
    set type 337 charge -0.66  # "DiMePhosphate O=P-O (UA)"
Setting atom values ...
  0 settings made for charge
    set type 338 charge -0.43  # "DiMePhosphate CH3-O (UA)"
Setting atom values ...
  0 settings made for charge
    set type 339 charge 0.2  # "DiMePhosphate CH3-O (UA)"
Setting atom values ...
  0 settings made for charge
    set type 340 charge 0.18  # "Trifluorothymine CF3-"
Setting atom values ...
  0 settings made for charge
    set type 341 charge -0.06  # "Chloroalkene Cl2-C="
Setting atom values ...
  0 settings made for charge
    set type 342 charge 0.12  # "Chloroalkene Cl2-C="
Setting atom values ...
  0 settings made for charge
    set type 343 charge -1.0  # "Fluoride Ion F-"
Setting atom values ...
  0 settings made for charge
    set type 344 charge -1.0  # "Chloride Ion Cl-"
Setting atom values ...
  0 settings made for charge
    set type 345 charge -1.0  # "Bromide Ion Br-"
Setting atom values ...
  0 settings made for charge
    set type 346 charge -1.0  # "Iodide Ion I-"
Setting atom values ...
  0 settings made for charge
    set type 347 charge 1.0  # "Ammonium Ion NH4+ (UA)"
Setting atom values ...
  0 settings made for charge
    set type 348 charge 1.0  # "Lithium Ion Li+"
Setting atom values ...
  0 settings made for charge
    set type 349 charge 1.0  # "Sodium Ion Na+"
Setting atom values ...
  0 settings made for charge
    set type 350 charge 1.0  # "Potassium Ion K+"
Setting atom values ...
  0 settings made for charge
    set type 351 charge 1.0  # "Rubidium Ion Rb+"
Setting atom values ...
  0 settings made for charge
    set type 352 charge 1.0  # "Cesium Ion Cs+"
Setting atom values ...
  0 settings made for charge
    set type 353 charge 2.0  # "Magnesium Ion Mg+2"
Setting atom values ...
  0 settings made for charge
    set type 354 charge 2.0  # "Calcium Ion Ca+2"
Setting atom values ...
  0 settings made for charge
    set type 355 charge 2.0  # "Strontium Ion Sr+2"
Setting atom values ...
  0 settings made for charge
    set type 356 charge 2.0  # "Barium Ion Ba+2"
Setting atom values ...
  0 settings made for charge
    set type 357 charge -0.4  # "Methyl Thiolate CH3S-"
Setting atom values ...
  0 settings made for charge
    set type 358 charge 0.1  # "Methyl Thiolate CH3S-"
Setting atom values ...
  0 settings made for charge
    set type 359 charge -0.9  # "Methyl Thiolate CH3S-"
Setting atom values ...
  0 settings made for charge
    set type 360 charge -0.2  # "Methoxide CH3O-"
Setting atom values ...
  0 settings made for charge
    set type 361 charge 0.06  # "Methoxide CH3O-"
Setting atom values ...
  0 settings made for charge
    set type 362 charge -0.98  # "Methoxide CH3O-"
Setting atom values ...
  0 settings made for charge
    set type 363 charge -1.07  # "Nitrile Anion CNCH2-"
Setting atom values ...
  0 settings made for charge
    set type 364 charge 0.19  # "Nitrile Anion CNCH2-"
Setting atom values ...
  0 settings made for charge
    set type 365 charge 0.51  # "Nitrile Anion CNCH2-"
Setting atom values ...
  0 settings made for charge
    set type 366 charge -0.82  # "Nitrile Anion CNCH2-"
Setting atom values ...
  0 settings made for charge
    set type 367 charge -0.3  # "Me Amine Anion CH3NH-"
Setting atom values ...
  0 settings made for charge
    set type 368 charge 0.07  # "Me Amine Anion CH3NH-"
Setting atom values ...
  0 settings made for charge
    set type 369 charge -1.31  # "Me Amine Anion CH3NH-"
Setting atom values ...
  0 settings made for charge
    set type 370 charge 0.4  # "Methyl Amine Anion"
Setting atom values ...
  0 settings made for charge
    set type 371 charge -0.4  # "Ethyl Anion CH3-CH2-"
Setting atom values ...
  0 settings made for charge
    set type 372 charge 0.08  # "Ethyl Anion CH3-CH2-"
Setting atom values ...
  0 settings made for charge
    set type 373 charge 0.0  # "Ethyl Anion CH3-CH2-"
Setting atom values ...
  0 settings made for charge
    set type 374 charge 0.07  # "Ethyl Anion CH3-CH2-"
Setting atom values ...
  0 settings made for charge
    set type 375 charge -0.98  # "Ethyl Anion CH3-CH2-"
Setting atom values ...
  0 settings made for charge
    set type 376 charge -1.3  # "Hydroxide Ion OH-"
Setting atom values ...
  0 settings made for charge
    set type 377 charge 0.3  # "Hydroxide Ion OH-"
Setting atom values ...
  0 settings made for charge
    set type 378 charge 2.5  # "Uranyl Ion UO2+"
Setting atom values ...
  0 settings made for charge
    set type 379 charge -0.25  # "Uranyl Ion UO2+"
Setting atom values ...
  0 settings made for charge
    set type 380 charge -0.865  # "GTP O-(POn)2"
Setting atom values ...
  0 settings made for charge
    set type 381 charge 1.62  # "DiMe Phosphate P"
Setting atom values ...
  0 settings made for charge
    set type 382 charge -0.92  # "DiMe Phosphate O=P-O"
Setting atom values ...
  0 settings made for charge
    set type 383 charge -0.6  # "DiMe Phosphate CH3-O"
Setting atom values ...
  0 settings made for charge
    set type 384 charge 0.3  # "DiMe Phosphate CH3-O"
Setting atom values ...
  0 settings made for charge
    set type 385 charge -0.03  # "DiMe Phosphate CH3-O"
Setting atom values ...
  0 settings made for charge
    set type 386 charge 1.92  # "Me Phosphate P"
Setting atom values ...
  0 settings made for charge
    set type 387 charge -1.12  # "Me Phosphate O=PO2"
Setting atom values ...
  0 settings made for charge
    set type 388 charge -0.7  # "Me Phosphate CH3-O"
Setting atom values ...
  0 settings made for charge
    set type 389 charge 0.44  # "Me Phosphate CH3-O"
Setting atom values ...
  0 settings made for charge
    set type 390 charge -0.1  # "Me Phosphate CH3-O"
Setting atom values ...
  0 settings made for charge
    set type 391 charge 1.62  # "Me MePhosphonate P"
Setting atom values ...
  0 settings made for charge
    set type 392 charge -0.97  # "Me MePhosphonate O=P-O"
Setting atom values ...
  0 settings made for charge
    set type 393 charge -0.63  # "Me MePhosphonate CH3-O"
Setting atom values ...
  0 settings made for charge
    set type 394 charge 0.28  # "Me MePhosphonate CH3-O"
Setting atom values ...
  0 settings made for charge
    set type 395 charge -0.02  # "Me MePhosphonate CH3-O"
Setting atom values ...
  0 settings made for charge
    set type 396 charge -0.51  # "Me MePhosphonate CH3-P"
Setting atom values ...
  0 settings made for charge
    set type 397 charge 0.08  # "Me MePhosphonate CH3-P"
Setting atom values ...
  0 settings made for charge
    set type 398 charge -0.14  # "Bz MePhosphonate Cipso"
Setting atom values ...
  0 settings made for charge
    set type 399 charge 0.32  # "Bz MePhosphonate CH3-O"
Setting atom values ...
  0 settings made for charge
    set type 400 charge 0.02  # "Bz MePhosphonate CH3-O"
Setting atom values ...
  0 settings made for charge
    set type 401 charge -0.04  # "Me BzPhosphonate Cipso"
Setting atom values ...
  0 settings made for charge
    set type 402 charge -0.47  # "Me BzPhosphonate CH3-P"
Setting atom values ...
  0 settings made for charge
    set type 403 charge 0.12  # "Me BzPhosphonate CH3-P"
Setting atom values ...
  0 settings made for charge
    set type 404 charge 0.14  # "Ph Phosphate Cipso"
Setting atom values ...
  0 settings made for charge
    set type 405 charge 0.24  # "Barbiturate C6(R2)"
Setting atom values ...
  0 settings made for charge
    set type 406 charge 0.51  # "Ester -COOR"
Setting atom values ...
  0 settings made for charge
    set type 407 charge -0.43  # "Ester C=O"
Setting atom values ...
  0 settings made for charge
    set type 408 charge -0.33  # "Ester CO-O-R"
Setting atom values ...
  0 settings made for charge
    set type 409 charge 0.16  # "Methyl Ester -OCH3"
Setting atom values ...
  0 settings made for charge
    set type 410 charge 0.03  # "Ester -OCH<"
Setting atom values ...
  0 settings made for charge
    set type 411 charge 0.635  # "Benzoic Acid -COOH"
Setting atom values ...
  0 settings made for charge
    set type 412 charge 0.625  # "Aryl Ester -COOR"
Setting atom values ...
  0 settings made for charge
    set type 413 charge 0.135  # "Phenyl Ester Cipso"
Setting atom values ...
  0 settings made for charge
    set type 414 charge -0.215  # "Phenyl Ester -OPh"
Setting atom values ...
  0 settings made for charge
    set type 415 charge 1.48  # "Sulfonamide -SO2N<"
Setting atom values ...
  0 settings made for charge
    set type 416 charge -0.68  # "Sulfonamide -SO2N<"
Setting atom values ...
  0 settings made for charge
    set type 417 charge -0.54  # "Sulfonamide CH3-S"
Setting atom values ...
  0 settings made for charge
    set type 418 charge 0.18  # "Sulfonamide CH3-S"
Setting atom values ...
  0 settings made for charge
    set type 419 charge -1.0  # "Sulfonamide -SO2NH2"
Setting atom values ...
  0 settings made for charge
    set type 420 charge 0.44  # "Sulfonamide -SO2NH2"
Setting atom values ...
  0 settings made for charge
    set type 421 charge -0.8  # "Sulfonamide -SO2NHR"
Setting atom values ...
  0 settings made for charge
    set type 422 charge 0.41  # "Sulfonamide -SO2NHR"
Setting atom values ...
  0 settings made for charge
    set type 423 charge 0.18  # "N-Me Sulfonamide CH3-"
Setting atom values ...
  0 settings made for charge
    set type 424 charge 0.03  # "N-Me Sulfonamide CH3-"
Setting atom values ...
  0 settings made for charge
    set type 425 charge 0.39  # "Sulfonamide N-CH2-R"
Setting atom values ...
  0 settings made for charge
    set type 426 charge -0.06  # "Sulfonamide N-CH2-R"
Setting atom values ...
  0 settings made for charge
    set type 427 charge -0.18  # "N-Et Sulfonamide CH3-"
Setting atom values ...
  0 settings made for charge
    set type 428 charge 0.06  # "N-Et Sulfonamide CH3-"
Setting atom values ...
  0 settings made for charge
    set type 429 charge 0.0  # "Aryl Sulfonamide C-SO2N"
Setting atom values ...
  0 settings made for charge
    set type 430 charge 0.03  # "Aryl Sulfoxide C-S=O"
Setting atom values ...
  0 settings made for charge
    set type 431 charge 0.19  # "Et Ester -OCH2R"
Setting atom values ...
  0 settings made for charge
    set type 432 charge 0.22  # "i-Pr Ester -OCHR2"
Setting atom values ...
  0 settings made for charge
    set type 433 charge 0.25  # "t-Bu Ester -OCR3"
Setting atom values ...
  0 settings made for charge
    set type 434 charge 1.374  # "Sulfone R-SO2-R"
Setting atom values ...
  0 settings made for charge
    set type 435 charge -0.687  # "Sulfone R-SO2-R"
Setting atom values ...
  0 settings made for charge
    set type 436 charge 0.245  # "Alkyl Aryl Sulfoxide"
Setting atom values ...
  0 settings made for charge
    set type 437 charge 0.13  # "Dialkyl Sulfoxide"
Setting atom values ...
  0 settings made for charge
    set type 438 charge -0.42  # "Sulfoxide R-SO-R"
Setting atom values ...
  0 settings made for charge
    set type 439 charge -0.035  # "Sulfoxide CH3-SO-R"
Setting atom values ...
  0 settings made for charge
    set type 440 charge 0.025  # "Sulfoxide -CH2-SO-R"
Setting atom values ...
  0 settings made for charge
    set type 441 charge 0.075  # "TRP CG"
Setting atom values ...
  0 settings made for charge
    set type 442 charge -0.055  # "TRP CD"
Setting atom values ...
  0 settings made for charge
    set type 443 charge 0.13  # "TRP CE"
Setting atom values ...
  0 settings made for charge
    set type 444 charge -0.57  # "TRP NE, HID ND & HIE NE"
Setting atom values ...
  0 settings made for charge
    set type 445 charge 0.42  # "TRP HNE & HID/HIE HN"
Setting atom values ...
  0 settings made for charge
    set type 446 charge -0.005  # "HIS CB"
Setting atom values ...
  0 settings made for charge
    set type 447 charge 0.295  # "HID & HIE CE1"
Setting atom values ...
  0 settings made for charge
    set type 448 charge -0.015  # "HID CD2 & HIE CG"
Setting atom values ...
  0 settings made for charge
    set type 449 charge 0.015  # "HID CG & HIE CD2"
Setting atom values ...
  0 settings made for charge
    set type 450 charge 0.385  # "HIP CE1"
Setting atom values ...
  0 settings made for charge
    set type 451 charge 0.215  # "HIP CG & CD2"
Setting atom values ...
  0 settings made for charge
    set type 452 charge -0.49  # "HID NE & HIE ND"
Setting atom values ...
  0 settings made for charge
    set type 453 charge -0.54  # "HIP ND & NE"
Setting atom values ...
  0 settings made for charge
    set type 454 charge 0.46  # "HIP HND & HNE"
Setting atom values ...
  0 settings made for charge
    set type 455 charge -0.115  # "TRP CD1"
Setting atom values ...
  0 settings made for charge
    set type 456 charge 0.055  # "i-Pr Benzene -CHMe2"
Setting atom values ...
  0 settings made for charge
    set type 457 charge 0.115  # "t-Bu Benzene -CMe3"
Setting atom values ...
  0 settings made for charge
    set type 458 charge -0.03  # "Vinyl Ether =CH-OR"
Setting atom values ...
  0 settings made for charge
    set type 459 charge 0.085  # "Vinyl Ether =CR-OR"
Setting atom values ...
  0 settings made for charge
    set type 460 charge 0.0  # "Biphenyl C1"
Setting atom values ...
  0 settings made for charge
    set type 461 charge -0.678  # "Pyridine N"
Setting atom values ...
  0 settings made for charge
    set type 462 charge 0.473  # "Pyridine C1"
Setting atom values ...
  0 settings made for charge
    set type 463 charge -0.447  # "Pyridine C2"
Setting atom values ...
  0 settings made for charge
    set type 464 charge 0.227  # "Pyridine C3"
Setting atom values ...
  0 settings made for charge
    set type 465 charge 0.012  # "Pyridine H1"
Setting atom values ...
  0 settings made for charge
    set type 466 charge 0.155  # "Pyridine H2"
Setting atom values ...
  0 settings made for charge
    set type 467 charge 0.065  # "Pyridine H3"
Setting atom values ...
  0 settings made for charge
    set type 468 charge -0.468  # "Pyrazine N"
Setting atom values ...
  0 settings made for charge
    set type 469 charge 0.192  # "Pyrazine CH"
Setting atom values ...
  0 settings made for charge
    set type 470 charge 0.042  # "Pyrazine CH"
Setting atom values ...
  0 settings made for charge
    set type 471 charge -0.839  # "Pyrimidine N"
Setting atom values ...
  0 settings made for charge
    set type 472 charge 0.874  # "Pyrimidine C2"
Setting atom values ...
  0 settings made for charge
    set type 473 charge 0.653  # "Pyrimidine C4"
Setting atom values ...
  0 settings made for charge
    set type 474 charge -0.689  # "Pyrimidine C5"
Setting atom values ...
  0 settings made for charge
    set type 475 charge -0.032  # "Pyrimidine HC2"
Setting atom values ...
  0 settings made for charge
    set type 476 charge 0.011  # "Pyrimidine HC4"
Setting atom values ...
  0 settings made for charge
    set type 477 charge 0.197  # "Pyrimidine HC5"
Setting atom values ...
  0 settings made for charge
    set type 478 charge -0.331  # "Pyridazine N"
Setting atom values ...
  0 settings made for charge
    set type 479 charge 0.378  # "Pyridazine C3"
Setting atom values ...
  0 settings made for charge
    set type 480 charge -0.16  # "Pyridazine C4"
Setting atom values ...
  0 settings made for charge
    set type 481 charge -0.009  # "Pyridazine HC3"
Setting atom values ...
  0 settings made for charge
    set type 482 charge 0.122  # "Pyridazine HC4"
Setting atom values ...
  0 settings made for charge
    set type 483 charge -0.239  # "Pyrrole N"
Setting atom values ...
  0 settings made for charge
    set type 484 charge -0.163  # "Pyrrole C2"
Setting atom values ...
  0 settings made for charge
    set type 485 charge -0.149  # "Pyrrole C3"
Setting atom values ...
  0 settings made for charge
    set type 486 charge 0.317  # "Pyrrole HN"
Setting atom values ...
  0 settings made for charge
    set type 487 charge 0.155  # "Pyrrole HC2"
Setting atom values ...
  0 settings made for charge
    set type 488 charge 0.118  # "Pyrrole HC3"
Setting atom values ...
  0 settings made for charge
    set type 489 charge -0.059  # "Pyrazole N1"
Setting atom values ...
  0 settings made for charge
    set type 490 charge -0.491  # "Pyrazole N2"
Setting atom values ...
  0 settings made for charge
    set type 491 charge 0.246  # "Pyrazole C3"
Setting atom values ...
  0 settings made for charge
    set type 492 charge -0.32  # "Pyrazole C4"
Setting atom values ...
  0 settings made for charge
    set type 493 charge -0.034  # "Pyrazole C5"
Setting atom values ...
  0 settings made for charge
    set type 494 charge 0.301  # "Pyrazole HN1"
Setting atom values ...
  0 settings made for charge
    set type 495 charge 0.072  # "Pyrazole HC3"
Setting atom values ...
  0 settings made for charge
    set type 496 charge 0.15  # "Pyrazole HC4"
Setting atom values ...
  0 settings made for charge
    set type 497 charge 0.135  # "Pyrazole HC5"
Setting atom values ...
  0 settings made for charge
    set type 498 charge -0.257  # "Imidazole N1"
Setting atom values ...
  0 settings made for charge
    set type 499 charge 0.275  # "Imidazole C2"
Setting atom values ...
  0 settings made for charge
    set type 500 charge -0.563  # "Imidazole N3"
Setting atom values ...
  0 settings made for charge
    set type 501 charge 0.185  # "Imidazole C4"
Setting atom values ...
  0 settings made for charge
    set type 502 charge -0.286  # "Imidazole C5"
Setting atom values ...
  0 settings made for charge
    set type 503 charge 0.306  # "Imidazole HN1"
Setting atom values ...
  0 settings made for charge
    set type 504 charge 0.078  # "Imidazole HC2"
Setting atom values ...
  0 settings made for charge
    set type 505 charge 0.075  # "Imidazole HC4"
Setting atom values ...
  0 settings made for charge
    set type 506 charge 0.187  # "Imidazole HC5"
Setting atom values ...
  0 settings made for charge
    set type 507 charge -0.19  # "Furan O"
Setting atom values ...
  0 settings made for charge
    set type 508 charge -0.019  # "Furan C2"
Setting atom values ...
  0 settings made for charge
    set type 509 charge -0.154  # "Furan C3"
Setting atom values ...
  0 settings made for charge
    set type 510 charge 0.142  # "Furan HC2"
Setting atom values ...
  0 settings made for charge
    set type 511 charge 0.126  # "Furan HC3"
Setting atom values ...
  0 settings made for charge
    set type 512 charge -0.257  # "Oxazole O"
Setting atom values ...
  0 settings made for charge
    set type 513 charge 0.511  # "Oxazole C2"
Setting atom values ...
  0 settings made for charge
    set type 514 charge -0.59  # "Oxazole N"
Setting atom values ...
  0 settings made for charge
    set type 515 charge 0.169  # "Oxazole C4"
Setting atom values ...
  0 settings made for charge
    set type 516 charge -0.148  # "Oxazole C5"
Setting atom values ...
  0 settings made for charge
    set type 517 charge 0.043  # "Oxazole HC2"
Setting atom values ...
  0 settings made for charge
    set type 518 charge 0.091  # "Oxazole HC4"
Setting atom values ...
  0 settings made for charge
    set type 519 charge 0.181  # "Oxazole HC5"
Setting atom values ...
  0 settings made for charge
    set type 520 charge -0.122  # "Isoxazole O"
Setting atom values ...
  0 settings made for charge
    set type 521 charge -0.413  # "Isoxazole N"
Setting atom values ...
  0 settings made for charge
    set type 522 charge 0.405  # "Isoxazole C3"
Setting atom values ...
  0 settings made for charge
    set type 523 charge -0.455  # "Isoxazole C4"
Setting atom values ...
  0 settings made for charge
    set type 524 charge 0.25  # "Isoxazole C5"
Setting atom values ...
  0 settings made for charge
    set type 525 charge 0.053  # "Isoxazole HC3"
Setting atom values ...
  0 settings made for charge
    set type 526 charge 0.184  # "Isoxazole HC4"
Setting atom values ...
  0 settings made for charge
    set type 527 charge 0.098  # "Isoxazole HC5"
Setting atom values ...
  0 settings made for charge
    set type 528 charge -0.5  # "Indole N1"
Setting atom values ...
  0 settings made for charge
    set type 529 charge 0.001  # "Indole C2"
Setting atom values ...
  0 settings made for charge
    set type 530 charge -0.39  # "Indole C3"
Setting atom values ...
  0 settings made for charge
    set type 531 charge -0.27  # "Indole C4"
Setting atom values ...
  0 settings made for charge
    set type 532 charge -0.127  # "Indole C5"
Setting atom values ...
  0 settings made for charge
    set type 533 charge -0.108  # "Indole C6"
Setting atom values ...
  0 settings made for charge
    set type 534 charge -0.258  # "Indole C7"
Setting atom values ...
  0 settings made for charge
    set type 535 charge 0.22  # "Indole C8"
Setting atom values ...
  0 settings made for charge
    set type 536 charge 0.225  # "Indole C9"
Setting atom values ...
  0 settings made for charge
    set type 537 charge 0.376  # "Indole HN1"
Setting atom values ...
  0 settings made for charge
    set type 538 charge 0.147  # "Indole HC2"
Setting atom values ...
  0 settings made for charge
    set type 539 charge 0.172  # "Indole HC3"
Setting atom values ...
  0 settings made for charge
    set type 540 charge 0.155  # "Indole HC4"
Setting atom values ...
  0 settings made for charge
    set type 541 charge 0.107  # "Indole HC5"
Setting atom values ...
  0 settings made for charge
    set type 542 charge 0.11  # "Indole HC6"
Setting atom values ...
  0 settings made for charge
    set type 543 charge 0.14  # "Indole HC7"
Setting atom values ...
  0 settings made for charge
    set type 544 charge -0.694  # "Quinoline N1"
Setting atom values ...
  0 settings made for charge
    set type 545 charge 0.425  # "Quinoline C2"
Setting atom values ...
  0 settings made for charge
    set type 546 charge -0.359  # "Quinoline C3"
Setting atom values ...
  0 settings made for charge
    set type 547 charge -0.008  # "Quinoline C4"
Setting atom values ...
  0 settings made for charge
    set type 548 charge -0.197  # "Quinoline C5"
Setting atom values ...
  0 settings made for charge
    set type 549 charge -0.112  # "Quinoline C6"
Setting atom values ...
  0 settings made for charge
    set type 550 charge -0.07  # "Quinoline C7"
Setting atom values ...
  0 settings made for charge
    set type 551 charge -0.307  # "Quinoline C8"
Setting atom values ...
  0 settings made for charge
    set type 552 charge 0.563  # "Quinoline C9"
Setting atom values ...
  0 settings made for charge
    set type 553 charge -0.051  # "Quinoline C10"
Setting atom values ...
  0 settings made for charge
    set type 554 charge 0.028  # "Quinoline HC2"
Setting atom values ...
  0 settings made for charge
    set type 555 charge 0.146  # "Quinoline HC3"
Setting atom values ...
  0 settings made for charge
    set type 556 charge 0.119  # "Quinoline HC4"
Setting atom values ...
  0 settings made for charge
    set type 557 charge 0.133  # "Quinoline HC5"
Setting atom values ...
  0 settings made for charge
    set type 558 charge 0.113  # "Quinoline HC6"
Setting atom values ...
  0 settings made for charge
    set type 559 charge 0.114  # "Quinoline HC7"
Setting atom values ...
  0 settings made for charge
    set type 560 charge 0.157  # "Quinoline HC8"
Setting atom values ...
  0 settings made for charge
    set type 561 charge -0.76  # "Purine N1"
Setting atom values ...
  0 settings made for charge
    set type 562 charge 0.679  # "Purine C2"
Setting atom values ...
  0 settings made for charge
    set type 563 charge -0.788  # "Purine N3"
Setting atom values ...
  0 settings made for charge
    set type 564 charge 0.736  # "Purine C4"
Setting atom values ...
  0 settings made for charge
    set type 565 charge 0.038  # "Purine C5"
Setting atom values ...
  0 settings made for charge
    set type 566 charge 0.343  # "Purine C6"
Setting atom values ...
  0 settings made for charge
    set type 567 charge -0.642  # "Purine N7"
Setting atom values ...
  0 settings made for charge
    set type 568 charge 0.452  # "Purine C8"
Setting atom values ...
  0 settings made for charge
    set type 569 charge -0.682  # "Purine N9"
Setting atom values ...
  0 settings made for charge
    set type 570 charge 0.024  # "Purine HC2"
Setting atom values ...
  0 settings made for charge
    set type 571 charge 0.101  # "Purine HC6"
Setting atom values ...
  0 settings made for charge
    set type 572 charge 0.086  # "Purine HC8"
Setting atom values ...
  0 settings made for charge
    set type 573 charge 0.413  # "Purine HN9"
Setting atom values ...
  0 settings made for charge
    set type 574 charge -0.03  # "Thiazole S"
Setting atom values ...
  0 settings made for charge
    set type 575 charge 0.242  # "Thiazole C2"
Setting atom values ...
  0 settings made for charge
    set type 576 charge -0.515  # "Thiazole N"
Setting atom values ...
  0 settings made for charge
    set type 577 charge 0.228  # "Thiazole C4"
Setting atom values ...
  0 settings made for charge
    set type 578 charge -0.299  # "Thiazole C5"
Setting atom values ...
  0 settings made for charge
    set type 579 charge 0.101  # "Thiazole HC2"
Setting atom values ...
  0 settings made for charge
    set type 580 charge 0.068  # "Thiazole HC4"
Setting atom values ...
  0 settings made for charge
    set type 581 charge 0.205  # "Thiazole HC5"
Setting atom values ...
  0 settings made for charge
    set type 582 charge -0.951  # "1,3,5-Triazine N"
Setting atom values ...
  0 settings made for charge
    set type 583 charge 0.965  # "1,3,5-Triazine CH"
Setting atom values ...
  0 settings made for charge
    set type 584 charge -0.014  # "1,3,5-Triazine CH"
Setting atom values ...
  0 settings made for charge
    set type 585 charge 0.13  # "Serotonin C5-OH"
Setting atom values ...
  0 settings made for charge
    set type 586 charge 0.052  # "Serotonin CH2 on C3"
Setting atom values ...
  0 settings made for charge
    set type 587 charge -0.599  # "1,10-Phenanthroline N"
Setting atom values ...
  0 settings made for charge
    set type 588 charge 0.392  # "1,10-Phenanthroline C2"
Setting atom values ...
  0 settings made for charge
    set type 589 charge -0.348  # "1,10-Phenanthroline C3"
Setting atom values ...
  0 settings made for charge
    set type 590 charge 0.02  # "1,10-Phenanthroline C4"
Setting atom values ...
  0 settings made for charge
    set type 591 charge -0.042  # "1,10-Phenanthroline C12"
Setting atom values ...
  0 settings made for charge
    set type 592 charge 0.347  # "1,10-Phenanthroline C11"
Setting atom values ...
  0 settings made for charge
    set type 593 charge -0.196  # "1,10-Phenanthroline C5"
Setting atom values ...
  0 settings made for charge
    set type 594 charge 0.032  # "1,10-Phenanthroline HC2"
Setting atom values ...
  0 settings made for charge
    set type 595 charge 0.146  # "1,10-Phenanthroline HC3"
Setting atom values ...
  0 settings made for charge
    set type 596 charge 0.108  # "1,10-Phenanthroline HC4"
Setting atom values ...
  0 settings made for charge
    set type 597 charge 0.14  # "1,10-Phenanthroline HC5"
Setting atom values ...
  0 settings made for charge
    set type 598 charge 0.122  # "1-Methylimidazole N1"
Setting atom values ...
  250 settings made for charge
    set type 599 charge 0.166  # "1-Methylimidazole C2"
Setting atom values ...
  125 settings made for charge
    set type 600 charge -0.58  # "1-Methylimidazole N3"
Setting atom values ...
  0 settings made for charge
    set type 601 charge 0.173  # "1-Methylimidazole C4"
Setting atom values ...
  0 settings made for charge
    set type 602 charge -0.395  # "1-Methylimidazole C5"
Setting atom values ...
  250 settings made for charge
    set type 603 charge -0.199  # "1-Methylimidazole CH3-"
Setting atom values ...
  250 settings made for charge
    set type 604 charge 0.118  # "1-Methylimidazole HC2"
Setting atom values ...
  125 settings made for charge
    set type 605 charge 0.093  # "1-Methylimidazole HC4"
Setting atom values ...
  125 settings made for charge
    set type 606 charge 0.208  # "1-Methylimidazole HC5"
Setting atom values ...
  125 settings made for charge
    set type 607 charge 0.098  # "1-Methylimidazole CH3-"
Setting atom values ...
  750 settings made for charge
    set type 608 charge -0.139  # "1-Et Imidazole RCH2-"
Setting atom values ...
  0 settings made for charge
    set type 609 charge -0.079  # "1-iPr Imidazole R2CH-"
Setting atom values ...
  0 settings made for charge
    set type 610 charge 0.099  # "1-MeO-Me-Imidazole CH2"
Setting atom values ...
  0 settings made for charge
    set type 611 charge -0.168  # "2-Me Pyridine CH3"
Setting atom values ...
  0 settings made for charge
    set type 612 charge -0.108  # "2-Et Pyridine CH2"
Setting atom values ...
  0 settings made for charge
    set type 613 charge -0.189  # "3-Me Pyridazine CH3"
Setting atom values ...
  0 settings made for charge
    set type 614 charge -0.129  # "3-Et Pyridazine CH2"
Setting atom values ...
  0 settings made for charge
    set type 615 charge -0.169  # "4-Me Pyrimidine CH3"
Setting atom values ...
  0 settings made for charge
    set type 616 charge -0.109  # "4-Et Pyrimidine CH2"
Setting atom values ...
  0 settings made for charge
    set type 617 charge -0.138  # "2-Me Pyrazine CH3"
Setting atom values ...
  0 settings made for charge
    set type 618 charge -0.078  # "2-Et Pyrazine CH2"
Setting atom values ...
  0 settings made for charge
    set type 619 charge -0.025  # "2-Me Pyrrole CH3"
Setting atom values ...
  0 settings made for charge
    set type 620 charge 0.035  # "2-Et Pyrrole CH2"
Setting atom values ...
  0 settings made for charge
    set type 621 charge -0.038  # "2-Me Furan CH3"
Setting atom values ...
  0 settings made for charge
    set type 622 charge 0.022  # "2-Et Furan CH2"
Setting atom values ...
  0 settings made for charge
    set type 623 charge -0.334  # "6-Mercaptopurine SH"
Setting atom values ...
  0 settings made for charge
    set type 624 charge 0.255  # "6-Mercaptopurine SH"
Setting atom values ...
  0 settings made for charge
    set type 625 charge 0.523  # "6-Mercaptopurine C6"
Setting atom values ...
  0 settings made for charge
    set type 626 charge 0.5  # "Beta-Lactam N-C=O"
Setting atom values ...
  0 settings made for charge
    set type 627 charge -0.14  # "Beta-Lactam N-C=O"
Setting atom values ...
  0 settings made for charge
    set type 628 charge 0.2275  # "Penicillin CH-N"
Setting atom values ...
  0 settings made for charge
    set type 629 charge 0.14  # "Penicillin CH-CO"
Setting atom values ...
  0 settings made for charge
    set type 630 charge -0.008  # "3-Me Indole CH3"
Setting atom values ...
  0 settings made for charge
    set type 631 charge 0.588  # "2-Phenyl Pyridine C2"
Setting atom values ...
  0 settings made for charge
    set type 632 charge -0.103  # "2-Phenyl Pyridine C2'"
Setting atom values ...
  0 settings made for charge
    set type 633 charge -0.332  # "2-Phenyl Pyridine C3"
Setting atom values ...
  0 settings made for charge
    set type 634 charge 0.04  # "2-Phenyl Pyridine C3'"
Setting atom values ...
  0 settings made for charge
    set type 635 charge 0.342  # "2-Phenyl Pyridine C4"
Setting atom values ...
  0 settings made for charge
    set type 636 charge -0.05  # "2-Phenyl Pyridine C4'"
Setting atom values ...
  0 settings made for charge
    set type 637 charge -0.205  # "Diphenyl Thioether S"
Setting atom values ...
  0 settings made for charge
    set type 638 charge 3.0  # "Actinium Ion Ac+3"
Setting atom values ...
  0 settings made for charge
    set type 639 charge 4.0  # "Thorium Ion Th+4"
Setting atom values ...
  0 settings made for charge
    set type 640 charge 3.0  # "Americium Ion Am+3"
Setting atom values ...
  0 settings made for charge
    set type 641 charge 0.619  # "t-Butyl Cation C+"
Setting atom values ...
  0 settings made for charge
    set type 642 charge -0.395  # "t-Butyl Cation CH3-"
Setting atom values ...
  0 settings made for charge
    set type 643 charge 0.174  # "t-Butyl Cation CH3-"
Setting atom values ...
  0 settings made for charge
    set type 644 charge 3.0  # "Lanthanum Ion La+3"
Setting atom values ...
  0 settings made for charge
    set type 645 charge 3.0  # "Neodymium Ion Nd+3"
Setting atom values ...
  0 settings made for charge
    set type 646 charge 3.0  # "Europium Ion Eu+3"
Setting atom values ...
  0 settings made for charge
    set type 647 charge 3.0  # "Gadolinium Ion Gd+3"
Setting atom values ...
  0 settings made for charge
    set type 648 charge 3.0  # "Ytterbium Ion Yb+3"
Setting atom values ...
  0 settings made for charge
    set type 649 charge -0.344  # "Cl..CH3..Cl- Sn2 TS"
Setting atom values ...
  0 settings made for charge
    set type 650 charge -0.628  # "Cl..CH3..Cl- Sn2 TS"
Setting atom values ...
  0 settings made for charge
    set type 651 charge 0.2  # "Cl..CH3..Cl- Sn2 TS"
Setting atom values ...
  0 settings made for charge
    set type 652 charge -0.12  # "Cyclopropane -CH2-"
Setting atom values ...
  0 settings made for charge
    set type 653 charge -0.06  # "Cyclopropane -CHR-"
Setting atom values ...
  0 settings made for charge
    set type 654 charge 0.0  # "Cyclopropane -CR2-"
Setting atom values ...
  0 settings made for charge
    set type 655 charge -0.23  # "Cyclopentadienyl Anion"
Setting atom values ...
  0 settings made for charge
    set type 656 charge 0.03  # "Cyclopentadienyl Anion"
Setting atom values ...
  0 settings made for charge
    set type 657 charge -0.099  # "Cyclopentadienyl Radical"
Setting atom values ...
  0 settings made for charge
    set type 658 charge 0.099  # "Cyclopentadienyl Radical"
Setting atom values ...
  0 settings made for charge
    set type 659 charge 0.22  # "Fluorobenzene CF"
Setting atom values ...
  0 settings made for charge
    set type 660 charge -0.22  # "Fluorobenzene CF"
Setting atom values ...
  0 settings made for charge
    set type 661 charge 0.13  # "Hexafluorobenzene CF"
Setting atom values ...
  0 settings made for charge
    set type 662 charge -0.13  # "Hexafluorobenzene CF"
Setting atom values ...
  0 settings made for charge
    set type 663 charge -0.22  # "Bromide -CH2-Br (UA)"
Setting atom values ...
  0 settings made for charge
    set type 664 charge 0.22  # "Bromide -CH2-Br (UA)"
Setting atom values ...
  0 settings made for charge
    set type 665 charge 0.15  # "TrifluoroMeBenzene C-CF3"
Setting atom values ...
  0 settings made for charge
    set type 666 charge 0.45  # "TrifluoroMeBenzene CF3-"
Setting atom values ...
  0 settings made for charge
    set type 667 charge -0.2  # "TrifluoroMeBenzene CF3-"
Setting atom values ...
  0 settings made for charge
    set type 668 charge 0.2  # "Difluorobenzene CF"
Setting atom values ...
  0 settings made for charge
    set type 669 charge -0.2  # "Difluorobenzene CF"
Setting atom values ...
  0 settings made for charge
    set type 670 charge 0.2  # "Bromobenzene CBr"
Setting atom values ...
  0 settings made for charge
    set type 671 charge -0.2  # "Bromobenzene CBr"
Setting atom values ...
  0 settings made for charge
    set type 672 charge 0.1  # "Iodobenzene CI"
Setting atom values ...
  0 settings made for charge
    set type 673 charge -0.1  # "Iodobenzene CI"
Setting atom values ...
  0 settings made for charge
    set type 674 charge 0.055  # "cProp/cBut Benzene C-Ar"
Setting atom values ...
  0 settings made for charge
    set type 675 charge -0.22  # "Thiophenol SH"
Setting atom values ...
  0 settings made for charge
    set type 676 charge 0.065  # "Thiophenol C-SH"
Setting atom values ...
  0 settings made for charge
    set type 677 charge 0.013  # "Benzamidine CG"
Setting atom values ...
  0 settings made for charge
    set type 678 charge -0.106  # "Benzamidine CD"
Setting atom values ...
  0 settings made for charge
    set type 679 charge -0.09  # "Benzamidine CE"
Setting atom values ...
  0 settings made for charge
    set type 680 charge -0.119  # "Benzamidine CZ"
Setting atom values ...
  0 settings made for charge
    set type 681 charge 0.141  # "Benzamidine HCD"
Setting atom values ...
  0 settings made for charge
    set type 682 charge 0.129  # "Benzamidine HCE"
Setting atom values ...
  0 settings made for charge
    set type 683 charge 0.827  # "Benzamidine C+"
Setting atom values ...
  0 settings made for charge
    set type 684 charge -0.885  # "Benzamidine -NH2"
Setting atom values ...
  0 settings made for charge
    set type 685 charge 0.426  # "Benzamidine H1-N"
Setting atom values ...
  0 settings made for charge
    set type 686 charge 0.465  # "Benzamidine H2-N"
Setting atom values ...
  0 settings made for charge
    set type 687 charge 0.119  # "Benzamidine HCG"
Setting atom values ...
  0 settings made for charge
    set type 688 charge -0.02  # "Neutral MeGdn CH3-"
Setting atom values ...
  0 settings made for charge
    set type 689 charge 0.04  # "Neutral ARG CD"
Setting atom values ...
  0 settings made for charge
    set type 690 charge -0.62  # "Neutral ARG NE"
Setting atom values ...
  0 settings made for charge
    set type 691 charge -0.785  # "Neutral ARG N1 (HN=C)"
Setting atom values ...
  0 settings made for charge
    set type 692 charge -0.785  # "Neutral ARG N2 (H2N-C)"
Setting atom values ...
  0 settings made for charge
    set type 693 charge 0.55  # "Neutral ARG CZ (>C=)"
Setting atom values ...
  0 settings made for charge
    set type 694 charge -0.56  # "Alkyl Nitrile -CN"
Setting atom values ...
  0 settings made for charge
    set type 695 charge 0.46  # "Alkyl Nitrile -CN"
Setting atom values ...
  0 settings made for charge
    set type 696 charge -0.08  # "Acetonitrile CH3-CN"
Setting atom values ...
  0 settings made for charge
    set type 697 charge -0.02  # "Alkyl Nitrile RCH2-CN"
Setting atom values ...
  0 settings made for charge
    set type 698 charge 0.04  # "Alkyl Nitrile R2CH-CN"
Setting atom values ...
  0 settings made for charge
    set type 699 charge 0.1  # "Alkyl Nitrile R3C-CN"
Setting atom values ...
  0 settings made for charge
    set type 700 charge 0.06  # "Alkyl Nitrile H-C-CN"
Setting atom values ...
  0 settings made for charge
    set type 701 charge 0.54  # "Nitroalkane -NO2"
Setting atom values ...
  0 settings made for charge
    set type 702 charge -0.37  # "Nitroalkane -NO2"
Setting atom values ...
  0 settings made for charge
    set type 703 charge 0.02  # "Nitromethane CH3-NO2"
Setting atom values ...
  0 settings made for charge
    set type 704 charge 0.06  # "Nitroalkane H-C-NO2"
Setting atom values ...
  0 settings made for charge
    set type 705 charge 0.08  # "Nitroalkane RCH2-NO2"
Setting atom values ...
  0 settings made for charge
    set type 706 charge 0.14  # "Nitroalkane R2CH-NO2"
Setting atom values ...
  0 settings made for charge
    set type 707 charge 0.2  # "Nitroalkane R3C-NO2"
Setting atom values ...
  0 settings made for charge
    set type 708 charge 0.65  # "Nitrobenzene -NO2"
Setting atom values ...
  0 settings made for charge
    set type 709 charge 0.09  # "Nitrobenzene C-NO2"
Setting atom values ...
  0 settings made for charge
    set type 710 charge 0.035  # "Benzonitrile -CH2-"
Setting atom values ...
  0 settings made for charge
    set type 711 charge -0.9  # "Neutral Benzamidine N"
Setting atom values ...
  0 settings made for charge
    set type 712 charge -0.5  # "Propylene Carbonate C=O"
Setting atom values ...
  0 settings made for charge
    set type 713 charge 0.86  # "Propylene Carbonate C=O"
Setting atom values ...
  0 settings made for charge
    set type 714 charge -0.45  # "Propylene Carbonate C-O"
Setting atom values ...
  0 settings made for charge
    set type 715 charge 0.21  # "Propylene Carbonate CH2"
Setting atom values ...
  0 settings made for charge
    set type 716 charge 0.16  # "Propylene Carbonate CH"
Setting atom values ...
  0 settings made for charge
    set type 717 charge -0.1  # "Propylene Carbonate CH3"
Setting atom values ...
  0 settings made for charge
    set type 718 charge 0.03  # "Propylene Carbonate CH2"
Setting atom values ...
  0 settings made for charge
    set type 719 charge 0.03  # "Propylene Carbonate CH"
Setting atom values ...
  0 settings made for charge
    set type 720 charge 0.06  # "Propylene Carbonate CH3"
Setting atom values ...
  0 settings made for charge
    set type 721 charge -0.78  # "GTP O-(POn)2"
Setting atom values ...
  0 settings made for charge
    set type 722 charge 0.9684  # "Phosphonium R4P+"
Setting atom values ...
  0 settings made for charge
    set type 723 charge -0.5081  # "Phosphonium CH3-PR3+"
Setting atom values ...
  0 settings made for charge
    set type 724 charge -0.008  # "Phosphonium RCH2-PR3+"
Setting atom values ...
  0 settings made for charge
    set type 725 charge 0.172  # "Phosphonium CH3-PR3+"
Setting atom values ...
  0 settings made for charge
    set type 726 charge 1.34  # "Hexafluorophosphate Ion"
Setting atom values ...
  0 settings made for charge
    set type 727 charge -0.39  # "Hexafluorophosphate Ion"
Setting atom values ...
  0 settings made for charge
    set type 728 charge 0.794  # "Nitrate Ion NO3-"
Setting atom values ...
  0 settings made for charge
    set type 729 charge -0.598  # "Nitrate Ion NO3-"
Setting atom values ...
  0 settings made for charge
    set type 730 charge -0.9  # "Amine RNH2"
Setting atom values ...
  0 settings made for charge
    set type 731 charge -0.78  # "Amine R2NH"
[...]
   81500    300.35584   -11053.503    2368.4058   -6783.4722    911.29602    36074.309 
   81600     298.2905   -11068.544    2408.4884   -6771.5069   -374.20699    36081.247 
   81700    302.69405   -11054.318    2380.5756   -6757.3132   -278.93505    36254.826 
   81800    298.66881   -11094.246    2417.7512   -6785.5506   -391.83842    35876.969 
   81900    289.89504   -10999.521    2429.2838   -6734.8415    349.19024    36439.706 
   82000    302.96281   -11110.361    2418.5822   -6773.6486   -660.33055    35699.206 
   82100     299.5548   -11027.122    2409.9508    -6720.618    -370.7113    36574.679 
   82200    306.88833    -11076.13     2370.429   -6762.7174   -103.60648    36010.171 
   82300    300.44999   -11040.415    2388.2777   -6749.9159   -213.67934      36291.8 
   82400    301.57562   -11072.808    2391.3909   -6772.0691   -17.140343    35991.237 
   82500    301.06103   -11017.738    2367.6549   -6743.9933   -845.16356    36501.977 
   82600    298.39881   -11039.352    2401.5672   -6748.5498    444.41128    36231.634 
   82700    301.78852    -11084.64    2405.4597   -6768.4845   -103.73865    35845.788 
   82800    298.02412   -11051.672    2415.8395   -6748.9697    142.89273    36101.617 
   82900    306.40986   -11070.431    2380.9273    -6749.549   -18.806615    36055.301 
   83000    305.98558   -11095.817    2397.1123   -6761.4367    789.94848    35908.468 
   83100    300.91651   -11013.589    2372.6508   -6735.7634     108.8143    36324.476 
   83200    306.91472   -11068.892    2383.6903   -6742.0511    416.66909    36099.307 
   83300    297.14064   -11012.976    2411.7183   -6719.9889    582.17497    36544.303 
   83400    296.19541   -10963.641    2397.0408   -6691.3156    190.55416    36991.012 
   83500    302.59996    -11022.32      2373.93   -6732.5573    621.86301    36252.938 
   83600    302.95801   -11025.028    2380.3111   -6726.6171    217.21812    36212.863 
   83700    299.51084   -11045.437    2416.8969   -6732.2644   -55.798707    36134.299 
   83800    293.21663   -11003.447    2435.8882   -6711.1338   -313.67749    36503.104 
   83900    296.39179   -11060.899    2439.7825   -6744.5888     387.6682    36028.145 
   84000    305.13268   -11090.423    2378.9861   -6779.5683    218.87164    35804.266 
   84100    297.89464   -11055.765    2388.1805   -6781.5416    337.10641    35936.404 
   84200    295.18699   -11024.078     2418.487   -6736.6911   -281.59693    36417.343 
   84300    301.85089   -11052.518    2376.9179   -6764.5095      788.838     35863.25 
   84400    301.12381   -11005.965    2387.6913   -6711.7862   -593.04869     36426.71 
   84500    309.29664   -11038.868     2393.231   -6687.4055   -154.61611    36558.782 
   84600    303.41739    -10994.82    2385.6218   -6688.1896    20.241091    36791.579 
   84700    294.16992    -11029.71    2458.7624   -6708.4874    333.41262    36644.775 
   84800    297.62811   -10949.553    2398.8556   -6666.3424    197.89011     37245.89 
   84900    300.54246   -11004.512    2404.6909   -6697.0145    317.58674    36783.986 
   85000    299.80108   -10966.852    2391.9544    -6676.785   -459.57793     37242.96 
   85100     307.2272   -10998.747    2361.4403   -6692.1772   -120.80942    36921.974 
   85200    298.00648   -10973.811    2400.5714   -6686.4891    57.426594    36927.368 
   85300    299.05185   -11014.345    2421.3463   -6699.6294   -170.24848    36651.449 
   85400    306.03333   -11020.327      2387.36   -6695.3968    276.66469    36924.042 
   85500     297.0972   -11024.888    2399.7637    -6744.131    103.07275    36479.577 
   85600    294.97372   -11001.858    2416.9939   -6717.3142    297.56961    36715.359 
   85700    300.52033   -10989.536    2407.7746   -6679.0953    -21.19219    36965.509 
   85800     302.3611   -10994.676    2395.9965   -6684.3584    58.432991    36924.958 
   85900    308.25439   -11018.738    2367.0623   -6700.0431   -374.42303    36781.179 
   86000    300.19585   -10959.669    2386.1813   -6672.8756   -44.151132    37279.656 
   86100     297.5847   -10955.496    2412.8009   -6658.6143    23.280301    37364.706 
   86200    296.85676   -10975.425    2432.3236   -6663.6295   -255.20863    37086.598 
   86300    299.23754   -10998.586    2405.4452    -6698.596   -92.414988    36634.069 
   86400    299.93992    -11002.24    2401.9139   -6701.3339    505.51106    36648.927 
   86500    305.79915   -11034.427    2366.6269   -6731.7125    37.816063     36365.39 
   86600    300.62388   -10990.418    2384.4131   -6702.6828   -73.636969    36762.765 
   86700    290.76221    -10982.77    2442.6393   -6699.2447   -461.50435    36694.479 
   86800    296.55314   -10946.701    2431.0088   -6638.1426   -379.47104    37391.569 
   86900    306.45656   -10986.555    2381.1174   -6665.1877    -19.03911    36966.837 
   87000    316.06829   -11036.303    2323.3084   -6711.8899    514.20963    36511.091 
   87100    296.92771   -11009.096    2405.0065   -6724.1689    85.223495    36582.809 
   87200     299.1492   -10967.694    2376.4055   -6697.3027    210.57175    37038.601 
   87300    301.45573   -11023.981    2400.9791   -6714.4131    350.28204    36731.377 
   87400    301.78047   -11012.495    2386.2418   -6715.6083    199.89438    36841.951 
   87500    299.55648   -11030.407    2396.0741   -6737.7687     254.8148    36606.504 
   87600    305.00404   -11067.306    2386.7496   -6749.5026    55.086402    36332.981 
   87700    297.97044   -10995.409      2390.36   -6718.5263   -98.223927    36786.176 
   87800    301.01349   -11062.238    2403.6932   -6752.7564   -390.12219    36193.068 
   87900     300.0931   -11006.868    2396.4008    -6710.506   -585.76182    36916.529 
   88000    304.33718   -11029.889    2360.4459    -6742.611    69.511442     36515.26 
   88100    301.12823   -11036.639    2397.5999   -6732.5243   -343.69107    36664.315 
   88200    298.97772   -11016.476    2397.8213   -6725.7551     108.3755    36816.016 
   88300    297.85836   -10991.363    2393.1789   -6712.3709    109.49751    36954.486 
   88400     297.9873   -10985.665    2394.2009   -6704.8351    294.61743     36775.19 
   88500    304.89096   -11010.413    2378.2533   -6701.8217    164.78229    36708.117 
   88600    303.04658   -10975.709    2377.5771    -6679.471    436.23111    37024.884 
   88700    292.18398   -10961.368    2434.6661   -6676.8152   -274.20853    37009.315 
   88800    297.56871   -10941.812    2413.3321   -6644.5011    464.10631    37278.815 
   88900    301.89064   -10988.619    2400.1919   -6677.0851   -303.82438    36816.103 
   89000    297.60639   -11027.781    2420.3268   -6723.2367    295.92946    36270.117 
   89100    301.41031   -11026.182    2382.9228    -6734.958    742.29636    36277.013 
   89200    300.17629   -11012.792    2394.0379   -6718.2655   -6.2771245     36498.31 
   89300    296.46298   -10922.163    2381.4572   -6663.7278    177.06874    37251.726 
   89400    300.44169    -10954.96    2368.7368    -6684.055    883.78411    36825.752 
   89500    299.04466   -10953.163    2408.2064   -6651.6331    305.94332    37146.836 
   89600    296.56957   -10915.735    2400.3438   -6637.7382    340.80965    37412.664 
   89700    308.22294   -11010.165     2361.872   -6696.8596    533.79585    36621.651 
   89800    300.43619    -10969.17    2379.9107   -6687.1255     163.9489    37027.203 
   89900    297.57698    -10989.71    2406.3175   -6699.3609   -37.342767    36906.995 
   90000    297.35061    -11026.04    2392.1409   -6751.3005   -209.77035     36215.66 
   90100    301.90764   -11006.554    2375.7467   -6719.3577    350.53084    36532.675 
   90200    306.49032   -11019.148    2379.5977   -6699.0864    782.00328    36612.569 
   90300    308.26031    -11023.45    2370.6924   -6701.0877   -187.43709    36591.999 
   90400    297.96727   -11013.478    2414.7639   -6712.2119   -90.956335    36551.489 
   90500    300.61642   -11043.114    2429.6704   -6710.1688   -522.18028    36666.908 
   90600    300.37882   -10997.958    2405.2855   -6690.9022   -301.02766    37037.791 
   90700    295.82776   -10985.915    2418.1753   -6694.7829   -526.72996    36965.834 
   90800    303.34786   -11045.284    2394.9376   -6729.7779    435.61229    36472.771 
   90900    307.33576   -10989.154    2346.6943   -6696.6435    479.19269    37079.014 
   91000    296.81229    -11003.69    2423.9767   -6700.5233    -480.7296    36932.679 
   91100    298.49266    -11000.33    2399.0183   -6711.4825   -730.72776    36683.545 
   91200    295.42775   -11033.523    2434.5389   -6728.5596    -603.3687     36337.82 
   91300    300.10979   -11040.216     2416.586   -6723.5623   -107.74218    36492.728 
   91400     307.9077   -11046.922    2346.1998   -6751.2842   -402.79484    36408.412 
   91500    301.96501   -11018.255     2363.425   -6743.0164    219.43671    36620.892 
   91600    292.12151    -11033.67    2440.2552   -6743.9235    93.970046    36623.609 
   91700    297.93991   -11060.894    2391.5445   -6783.0202    381.35296    36102.846 
   91800    300.50707   -11075.861    2383.9686   -6789.3101     254.2618    35936.306 
   91900    297.33485   -11077.839    2414.5662   -6780.7738    373.03596    35997.617 
   92000    304.22778   -11076.807    2371.5069   -6779.1606    121.89919      36050.1 
   92100    299.49473   -11058.883    2382.4626   -6780.2473   -44.209913    36263.174 
   92200    294.54725   -11011.909    2394.0014   -6753.0582   -147.79545    36693.911 
   92300    298.50042   -10984.025    2377.6709   -6716.4759   0.70583218    36881.473 
   92400    301.63675   -10988.793    2369.8522    -6709.206    779.27095    36728.945 
   92500    310.24029   -11007.147    2348.2553   -6694.6861    241.55468    36759.622 
   92600    297.60249   -10987.115    2424.2088   -6678.7135    264.69702    37045.614 
   92700    302.05122   -11002.219       2379.6   -6710.2603    140.67267    36670.986 
   92800    301.77074   -11020.808    2388.2429    -6721.982     390.8317    36576.528 
   92900     300.2344   -11022.405    2394.9549    -6726.594     277.1039    36577.103 
   93000    302.82724   -11015.087    2385.4912   -6712.3238    332.52141    36676.705 
   93100    299.08409   -11027.216    2403.2567   -6730.3858    992.09058     36402.97 
   93200    304.60789   -11065.435    2396.0946   -6740.7945   -73.395059    36252.906 
   93300    302.65169   -11022.573    2380.8935   -6725.5187     197.4572    36627.003 
   93400    296.55612   -11085.401    2437.7051   -6770.1281   -506.08286    36073.652 
   93500    293.98218   -10991.185    2411.4823   -6718.4308    643.79583    36872.868 
   93600    300.35299   -11043.977    2412.4468   -6729.9232    153.55999    36520.616 
   93700     298.5516   -11000.034     2415.173   -6694.6594    1254.0012    36905.055 
   93800    298.87843    -10997.66    2413.1351   -6692.2535   -153.29672    36786.284 
   93900    306.08048   -11054.715    2392.8521   -6723.9941    714.50935    36430.288 
   94000    293.55582   -10999.557    2423.0481   -6717.9363    131.27528    36744.911 
   94100    304.73774   -11061.792    2371.9224   -6760.5016    269.99238    36001.383 
   94200    305.85372   -11037.942    2390.4892   -6711.0188      175.839    36548.406 
   94300    300.64141   -11071.242     2422.376   -6745.4329    662.71439    36133.366 
   94400    298.17547   -11022.509    2411.1555   -6723.5333    108.93575    36579.539 
   94500    297.26141   -11049.695    2444.3656   -6723.2959    -698.4064    36582.439 
   94600    298.84251   -11037.471    2408.3576   -6737.0694    140.82766    36487.078 
   94700    300.37353   -11005.456    2392.4084    -6711.311   -12.580158    36809.502 
   94800    297.80391   -11031.197    2425.5951   -6720.1339    289.39459    36543.401 
   94900    302.38992   -11052.554    2404.4718   -6733.5793    300.43592    36297.371 
   95000    297.41391   -11012.334    2416.1829   -6713.1521    1150.1226    36648.051 
   95100    295.91372   -10996.018    2427.0503   -6695.4665   -238.18963    36830.547 
   95200    301.22173    -10975.99    2405.0746   -6663.8079   -168.82826    37247.997 
   95300    302.11106   -10980.718    2388.1981   -6679.7818   -140.24258    37080.298 
   95400    299.64681   -10942.302    2389.1162   -6656.0495     642.5222    37450.317 
   95500    299.51473   -10925.187     2402.741   -6626.1459    13.010223    37728.855 
   95600    301.68423   -10961.075    2410.4076   -6640.6319    389.93212     37367.86 
   95700    308.40966   -10981.971    2365.4451   -6663.9101    484.19202    37212.485 
   95800    308.28552   -10986.928    2349.2317   -6685.8668    100.44091    37051.507 
   95900    300.26533   -10962.516    2395.4129   -6666.0513   -397.55224    37307.964 
   96000    294.56924   -10969.769    2453.4897   -6651.2908   -484.04296    37388.173 
   96100     298.6195   -10984.162    2432.2541   -6661.2757   -21.985607    37301.514 
   96200      301.224   -10943.676    2380.2908   -6656.2632    218.00306    37599.057 
   96300    301.44167   -10955.348    2361.4719   -6685.3762    634.48856    37187.484 
   96400    303.62189   -10935.433    2387.6132   -6625.5169    -222.7623    37800.594 
   96500    302.49091   -10951.934    2406.8594   -6629.9322    19.358129    37470.625 
   96600    297.53412   -10988.158    2452.2991   -6652.0985   -113.80738    37163.356 
   96700    299.23272    -10974.04    2426.0154   -6653.5106   -213.26931     37321.46 
   96800    303.31696   -10946.063    2362.9302   -6662.7602    47.516721    37408.639 
   96900    295.11904   -10963.214    2416.4988   -6678.2455    -856.1009    37130.878 
   97000    294.01722   -10947.124    2433.2637    -6652.367   -365.11416    37353.103 
   97100     302.9336   -10963.991    2412.1304   -6633.9148   -238.64152     37543.23 
   97200    294.82028   -10959.907    2444.5492   -6648.7793   -347.34689    37336.199 
   97300    296.60599   -10939.277     2431.425   -6629.9677   -899.57091    37732.547 
   97400    301.25018   -10960.067    2383.1675   -6669.6118    435.04819    37212.446 
   97500    298.84625   -10952.453    2417.8768    -6642.509   -126.66607    37449.558 
   97600    300.47782   -10971.718    2424.9764   -6644.3445    514.52011    37312.049 
   97700    300.11917    -11003.08    2428.4337   -6674.5201   -616.74993    37022.897 
   97800    297.15601   -11029.568    2452.0625   -6696.1393    853.09407    36831.829 
   97900    302.19719   -11002.102     2387.389   -6701.4297     630.3843    36981.928 
   98000    303.43206   -11001.536    2369.7387   -6710.6964    517.76888    36813.471 
   98100    299.94309   -11037.869    2414.6164   -6724.2406   -188.09638    36403.833 
   98200      307.227   -11046.259    2392.4031   -6708.7279   -366.64803    36545.067 
   98300    305.52891    -11026.09    2377.3971   -6714.3158    1132.6589    36518.792 
   98400    305.03839   -11006.409     2381.671   -6693.4668    333.68644    36852.522 
   98500    299.53457   -10969.442    2408.7663   -6664.2503    280.99673     37294.89 
   98600    301.37503   -11010.004    2401.6286   -6700.2981   -422.23115    36828.233 
   98700    296.98824   -10985.729    2408.5499   -6696.8749   -82.527202     36951.87 
   98800    299.21675   -10987.622    2413.0645   -6680.1448    450.04023    37130.625 
   98900    294.77078   -10974.451    2446.6466     -6661.54   -138.74875    37371.086 
   99000    298.86912   -10957.161    2407.7984     -6657.15   -675.29308    37262.344 
   99100     298.4574   -10966.346    2419.5477   -6657.1926   -8.0385924      37071.2 
   99200     304.6691   -10958.385    2391.7449   -6637.7068   -312.42058    37319.951 
   99300     302.5493   -10992.505    2415.2389   -6661.7539    268.86189    37011.858 
   99400    306.34003   -10971.425    2364.3609   -6667.5521    108.93741    37063.852 
   99500    300.39639   -11032.446    2423.3366   -6707.2281    409.06464     36578.15 
   99600     300.8316   -11024.206    2404.4051   -6715.1633    202.67193     36563.47 
   99700    296.62949   -10981.694    2418.4596   -6685.2018    25.741777    36965.728 
   99800    301.65161   -11020.337     2409.131   -6701.3775   -452.26101    36743.029 
   99900    304.23047   -11031.122    2380.9821   -6723.9839    200.30495    36482.611 
  100000    302.84028   -11028.351    2397.8772   -6713.1193    -899.2011    36713.635 
  100100    303.08728   -11049.582    2396.4923   -6734.1708   -118.47105    36504.475 
  100200    298.37635   -11019.386    2393.1473   -6737.1462   -263.97808    36561.485 
  100300    295.89606   -11029.607    2419.9219   -6736.2963    590.96976    36522.246 
  100400    298.75545   -11000.759    2403.0352   -6706.2313   -73.891995    36857.257 
  100500    308.13209   -11039.453    2371.1417   -6717.4532    406.70408    36591.124 
  100600    301.02199   -11055.352     2408.922   -6740.5873   -434.09951    36396.935 
  100700    299.72308   -11064.476    2402.9501   -6763.9068   -292.35107    36249.919 
  100800    298.98199   -11054.665    2383.3523   -6778.3863   -60.945272     36096.35 
  100900    299.86992    -11056.98    2393.6715   -6764.7595   -603.40678    36257.805 
  101000    302.62897   -11070.579    2367.7814   -6786.7812    518.74138     35870.06 
  101100    295.84331   -11055.969    2417.8859   -6765.0278   -141.72857    36077.198 
  101200    299.08263   -11058.498    2407.8882   -6757.0457    839.64224    36064.288 
  101300    300.26948   -11027.953    2400.0775   -6726.7973    250.98175    36477.806 
  101400    304.78291   -11044.042    2379.1952   -6735.1926    177.22619    36445.861 
  101500    297.81054    -11005.38    2404.5844   -6715.2854   -15.863159    36640.151 
  101600    303.20853   -11047.707     2388.061   -6739.9596     821.9716    36130.868 
  101700    303.47464   -11037.328    2386.0498   -6729.9068    35.842573     36347.95 
  101800    303.59571   -11078.525    2399.0581   -6757.3296    371.60561    36008.017 
  101900    297.01784   -10989.641    2408.4044   -6700.7456    157.08761    36752.606 
  102000    299.56642   -11024.308     2408.342   -6719.3391    780.11993    36390.614 
  102100    303.38469   -11027.396      2395.95   -6710.6445   -333.76552    36461.586 
  102127    294.98821   -11028.184    2443.5696   -6716.9727    359.89704    36348.843 
Loop time of 929.492 on 1 procs for 100000 steps with 2125 atoms

Performance: 9.295 ns/day, 2.582 hours/ns, 107.586 timesteps/s
100.0% CPU use with 1 MPI tasks x no OpenMP threads

MPI task timing breakdown:
Section |  min time  |  avg time  |  max time  |%varavg| %total
---------------------------------------------------------------
Pair    | 684.86     | 684.86     | 684.86     |   0.0 | 73.68
Bond    | 87.924     | 87.924     | 87.924     |   0.0 |  9.46
Kspace  | 81.07      | 81.07      | 81.07      |   0.0 |  8.72
Neigh   | 46.354     | 46.354     | 46.354     |   0.0 |  4.99
Comm    | 3.5404     | 3.5404     | 3.5404     |   0.0 |  0.38
Output  | 0.24919    | 0.24919    | 0.24919    |   0.0 |  0.03
Modify  | 24.548     | 24.548     | 24.548     |   0.0 |  2.64
Other   |            | 0.9493     |            |       |  0.10

Nlocal:        2125.00 ave        2125 max        2125 min
Histogram: 1 0 0 0 0 0 0 0 0 0
Nghost:        9847.00 ave        9847 max        9847 min
Histogram: 1 0 0 0 0 0 0 0 0 0
Neighs:        581299.0 ave      581299 max      581299 min
Histogram: 1 0 0 0 0 0 0 0 0 0

Total # of neighbors = 581299
Ave neighs/atom = 273.55247
Ave special neighs/atom = 8.2352941
Neighbor list builds = 3513
Dangerous builds = 0

write_data   system_after_npt.data
System init for write_data ...
PPPM initialization ...
  using 12-bit tables for long-range coulomb (../kspace.cpp:340)
  G vector (1/distance) = 0.21901712
  grid = 12 12 12
  stencil order = 5
  estimated absolute RMS force accuracy = 0.019089226
  estimated relative force accuracy = 5.7486637e-05
  using double precision KISS FFT
  3d grid and FFT values/proc = 4913 1728
Total wall time: 0:16:07
